 -0.12000000000000000          0.0000000000000000
 -0.11914999999999999          2.0248093866881374E-011
 -0.11830000000000000          1.5830244351514217E-010
 -0.11745000000000000          6.0260567354840806E-010
 -0.11660000000000000          1.4801961973788302E-009
 -0.11574999999999999          2.5587543490336692E-009
 -0.11490000000000000          3.0056703225119715E-009
 -0.11405000000000000          1.4689159485334604E-009
 -0.11320000000000000         -3.3671290158988053E-009
 -0.11234999999999999         -1.1857649458431974E-008
 -0.11150000000000000         -2.2499087046426230E-008
 -0.11065000000000000         -3.1600875614105064E-008
 -0.10979999999999999         -3.3961480104087574E-008
 -0.10894999999999999         -2.4603148087218691E-008
 -0.10810000000000000         -1.1006317295968762E-009
 -0.10725000000000000          3.4390175569768523E-008
 -0.10639999999999999          7.4406441112924827E-008
 -0.10554999999999999          1.0742581935532020E-007
 -0.10470000000000000          1.2104941010295558E-007
 -0.10385000000000000          1.0624802943792454E-007
 -0.10299999999999999          6.1186582250735301E-008
 -0.10214999999999999         -6.9471949504849390E-009
 -0.10130000000000000         -8.3129210988442858E-008
 -0.10045000000000000         -1.4866545180874426E-007
  -9.9599999999999994E-002    -1.8712108434885381E-007
  -9.8750000000000004E-002    -1.8995696448013079E-007
  -9.7900000000000001E-002    -1.5970722800990388E-007
  -9.7049999999999997E-002    -1.0927034279980789E-007
  -9.6199999999999994E-002    -5.7264734335363602E-008
  -9.5349999999999990E-002    -2.0926748472004698E-008
  -9.4500000000000001E-002    -9.1120196826292175E-009
  -9.3649999999999997E-002    -1.8134509410971203E-008
  -9.2799999999999994E-002    -3.2301547497423478E-008
  -9.1950000000000004E-002    -2.9339086715768162E-008
  -9.1100000000000000E-002     1.0956096221290563E-008
  -9.0249999999999997E-002     9.7854042364813574E-008
  -8.9399999999999993E-002     2.2392870687071370E-007
  -8.8549999999999990E-002     3.6477853144350204E-007
  -8.7700000000000000E-002     4.8474192519526019E-007
  -8.6849999999999997E-002     5.4697747001669017E-007
  -8.5999999999999993E-002     5.2464728008839563E-007
  -8.5150000000000003E-002     4.0944273391495616E-007
  -8.4300000000000000E-002     2.1453717641116280E-007
  -8.3449999999999996E-002    -2.9042779085351602E-008
  -8.2600000000000007E-002    -2.8135401306025915E-007
  -8.1749999999999989E-002    -5.0468926411199430E-007
  -8.0900000000000000E-002    -6.7315455740617620E-007
  -8.0049999999999996E-002    -7.7755153178263919E-007
  -7.9199999999999993E-002    -8.2422959894770407E-007
  -7.8350000000000003E-002    -8.2879371834462265E-007
  -7.7499999999999999E-002    -8.0737441844309939E-007
  -7.6649999999999996E-002    -7.6895053557043973E-007
  -7.5800000000000006E-002    -7.1166412860286088E-007
  -7.4949999999999989E-002    -6.2444640203268508E-007
  -7.4099999999999999E-002    -4.9320295058527796E-007
  -7.3249999999999996E-002    -3.0903457166784828E-007
  -7.2399999999999992E-002    -7.5232443594862544E-008
  -7.1550000000000002E-002     1.8975304581960588E-007
  -7.0699999999999999E-002     4.5469992916189221E-007
  -6.9849999999999995E-002     6.8271068327337040E-007
  -6.9000000000000006E-002     8.4067721694248572E-007
  -6.8149999999999988E-002     9.0795175481608653E-007
  -6.7299999999999999E-002     8.8135461917094116E-007
  -6.6449999999999995E-002     7.7493749234101910E-007
  -6.5599999999999992E-002     6.1463502037608018E-007
  -6.4750000000000002E-002     4.2956052869052852E-007
  -6.3899999999999998E-002     2.4273402089094025E-007
  -6.3049999999999995E-002     6.4032847994744828E-008
  -6.2199999999999998E-002    -1.1269436953138513E-007
  -6.1350000000000002E-002    -3.0764815407407410E-007
  -6.0499999999999998E-002    -5.4894088119921591E-007
  -5.9650000000000002E-002    -8.6425113455715308E-007
  -5.8799999999999998E-002    -1.2724940886276822E-006
  -5.7950000000000002E-002    -1.7777931738933403E-006
  -5.7099999999999998E-002    -2.3675019126683936E-006
  -5.6249999999999994E-002    -3.0149051399453339E-006
  -5.5400000000000005E-002    -3.6862517238028645E-006
  -5.4550000000000001E-002    -4.3506288523418569E-006
  -5.3699999999999998E-002    -4.9906183292319490E-006
  -5.2849999999999994E-002    -5.6110306367013915E-006
  -5.2000000000000005E-002    -6.2433938438705508E-006
  -5.1150000000000001E-002    -6.9441559493071322E-006
  -5.0299999999999997E-002    -7.7864423573845834E-006
  -4.9449999999999994E-002    -8.8468339593480964E-006
  -4.8600000000000004E-002    -1.0190028801375023E-005
  -4.7750000000000001E-002    -1.1855814827535705E-005
  -4.6899999999999997E-002    -1.3852811025056038E-005
  -4.6049999999999994E-002    -1.6161781375133450E-005
  -4.5200000000000004E-002    -1.8748865942155666E-005
  -4.4350000000000001E-002    -2.1586857203505131E-005
  -4.3499999999999997E-002    -2.4679072178341482E-005
  -4.2649999999999993E-002    -2.8078050205346958E-005
  -4.1800000000000004E-002    -3.1893442697023585E-005
  -4.0950000000000000E-002    -3.6286408931513934E-005
  -4.0099999999999997E-002    -4.1449739765831325E-005
  -3.9249999999999993E-002    -4.7580008370435748E-005
  -3.8400000000000004E-002    -5.4850282317093346E-005
  -3.7550000000000000E-002    -6.3391931904888642E-005
  -3.6699999999999997E-002    -7.3292642508053138E-005
  -3.5850000000000007E-002    -8.4613291327378465E-005
  -3.5000000000000003E-002    -9.7420313873252461E-005
  -3.4150000000000000E-002    -1.1182349176395321E-004
  -3.3299999999999996E-002    -1.2800893771134237E-004
  -3.2450000000000007E-002    -1.4625778868429377E-004
  -3.1600000000000003E-002    -1.6694436857262888E-004
  -3.0750000000000000E-002    -1.9051553338848896E-004
  -2.9899999999999996E-002    -2.1745903400312991E-004
  -2.9050000000000006E-002    -2.4826920976226584E-004
  -2.8200000000000003E-002    -2.8342196618820649E-004
  -2.7349999999999999E-002    -3.2337150801699260E-004
  -2.6499999999999996E-002    -3.6856754048830096E-004
  -2.5650000000000006E-002    -4.1948486866900177E-004
  -2.4800000000000003E-002    -4.7666227945748876E-004
  -2.3949999999999999E-002    -5.4073609514347003E-004
  -2.3099999999999996E-002    -6.1246129006882705E-004
  -2.2250000000000006E-002    -6.9271233823011823E-004
  -2.1400000000000002E-002    -7.8246606224467437E-004
  -2.0549999999999999E-002    -8.8277523724143074E-004
  -1.9699999999999995E-002    -9.9474034028870307E-004
  -1.8850000000000006E-002    -1.1194869420720808E-003
  -1.8000000000000002E-002    -1.2581566985944608E-003
  -1.7149999999999999E-002    -1.4119111671730045E-003
  -1.6299999999999995E-002    -1.5819461339674446E-003
  -1.5450000000000005E-002    -1.7695049316709930E-003
  -1.4600000000000002E-002    -1.9758932578599585E-003
  -1.3749999999999998E-002    -2.2024852425618921E-003
  -1.2899999999999995E-002    -2.4507117799452346E-003
  -1.2050000000000005E-002    -2.7220457216815988E-003
  -1.1200000000000002E-002    -3.0179692384011509E-003
  -1.0349999999999998E-002    -3.3399383583277058E-003
  -9.5000000000000084E-003    -3.6893535578636982E-003
  -8.6500000000000049E-003    -4.0675277369564972E-003
  -7.8000000000000014E-003    -4.4756509241475886E-003
  -6.9499999999999978E-003    -4.9147655778876273E-003
  -6.1000000000000082E-003    -5.3857397790975136E-003
  -5.2500000000000047E-003    -5.8892396104943123E-003
  -4.4000000000000011E-003    -6.4256994642487193E-003
  -3.5499999999999976E-003    -6.9952841354367426E-003
  -2.7000000000000079E-003    -7.5978554307281777E-003
  -1.8500000000000044E-003    -8.2329338124711125E-003
  -1.0000000000000009E-003    -8.8996678276938804E-003
  -1.4999999999999736E-004    -9.5967710081136665E-003
   6.9999999999999230E-004    -1.0322472056966597E-002
   1.5499999999999958E-003    -1.1074460911205937E-002
   2.3999999999999994E-003    -1.1849829267582726E-002
   3.2500000000000029E-003    -1.2644990977248199E-002
   4.0999999999999925E-003    -1.3455645289401368E-002
   4.9499999999999961E-003    -1.4276741164448764E-002
   5.7999999999999996E-003    -1.5102466511253505E-002
   6.6499999999999893E-003    -1.5926237550949813E-002
   7.5000000000000067E-003    -1.6740699872637137E-002
   8.3499999999999963E-003    -1.7537755094900860E-002
   9.1999999999999860E-003    -1.8308545420168524E-002
   1.0050000000000003E-002    -1.9043493257656662E-002
   1.0899999999999993E-002    -1.9732275813535642E-002
   1.1750000000000010E-002    -2.0363822636930401E-002
   1.2600000000000000E-002    -2.0926330531410738E-002
   1.3449999999999990E-002    -2.1407317300753181E-002
   1.4300000000000007E-002    -2.1793748446083012E-002
   1.5149999999999997E-002    -2.2072101214192896E-002
   1.5999999999999986E-002    -2.2228521059802209E-002
   1.6850000000000004E-002    -2.2249000029450003E-002
   1.7699999999999994E-002    -2.2119510133351158E-002
   1.8549999999999983E-002    -2.1826165333576536E-002
   1.9400000000000001E-002    -2.1355376357348081E-002
   2.0249999999999990E-002    -2.0694005079329249E-002
   2.1100000000000008E-002    -1.9829513008755840E-002
   2.1949999999999997E-002    -1.8750171461251401E-002
   2.2799999999999987E-002    -1.7445247693008894E-002
   2.3650000000000004E-002    -1.5905239411153588E-002
   2.4499999999999994E-002    -1.4122149416817269E-002
   2.5349999999999984E-002    -1.2089678424293353E-002
   2.6200000000000001E-002    -9.8035099579928120E-003
   2.7049999999999991E-002    -7.2614586239234929E-003
   2.7900000000000008E-002    -4.4636549559490969E-003
   2.8749999999999998E-002    -1.4128023219574615E-003
   2.9599999999999987E-002     1.8857089499175238E-003
   3.0450000000000005E-002     5.4236889510549755E-003
   3.1299999999999994E-002     9.1900171544548707E-003
   3.2149999999999984E-002     1.3170587192450015E-002
   3.3000000000000002E-002     1.7348204312097524E-002
   3.3849999999999991E-002     2.1702513868624922E-002
   3.4700000000000009E-002     2.6210090273271074E-002
   3.5549999999999998E-002     3.0844518526013862E-002
   3.6399999999999988E-002     3.5576387449058992E-002
   3.7250000000000005E-002     4.0373455833634386E-002
   3.8099999999999995E-002     4.5200932746164608E-002
   3.8949999999999985E-002     5.0021613180956916E-002
   3.9800000000000002E-002     5.4796155421817053E-002
   4.0649999999999992E-002     5.9483444802879044E-002
   4.1500000000000009E-002     6.4040901221959878E-002
   4.2349999999999999E-002     6.8424827843368591E-002
   4.3199999999999988E-002     7.2590923306769514E-002
   4.4050000000000006E-002     7.6494680604181103E-002
   4.4899999999999995E-002     8.0091896688516254E-002
   4.5749999999999985E-002     8.3339165796746009E-002
   4.6600000000000003E-002     8.6194374193147114E-002
   4.7449999999999992E-002     8.8617193124614996E-002
   4.8299999999999982E-002     9.0569599005062049E-002
   4.9149999999999999E-002     9.2016358384623673E-002
   4.9999999999999989E-002     9.2925540448099933E-002
   5.0850000000000006E-002     9.3268905027068125E-002
   5.1699999999999996E-002     9.3022495315472492E-002
   5.2549999999999986E-002     9.2166962020311105E-002
   5.3400000000000003E-002     9.0688026384717874E-002
   5.4249999999999993E-002     8.8576734386624514E-002
   5.5099999999999982E-002     8.5829716456888666E-002
   5.5950000000000000E-002     8.2449409555248515E-002
   5.6799999999999989E-002     7.8444130101835055E-002
   5.7650000000000007E-002     7.3828197882069388E-002
   5.8499999999999996E-002     6.8621906264631438E-002
   5.9349999999999986E-002     6.2851458843754676E-002
   6.0200000000000004E-002     5.6548808737693607E-002
   6.1049999999999993E-002     4.9751502667455726E-002
   6.1899999999999983E-002     4.2502433809249833E-002
   6.2750000000000000E-002     3.4849398931170082E-002
   6.3599999999999990E-002     2.6844690780940754E-002
   6.4450000000000007E-002     1.8544656102131879E-002
   6.5299999999999997E-002     1.0009167216941537E-002
   6.6149999999999987E-002     1.3010830897154265E-003
   6.7000000000000004E-002    -7.5145349281506135E-003
   6.7849999999999994E-002    -1.6370994830076448E-002
   6.8699999999999983E-002    -2.5200580498519264E-002
   6.9550000000000001E-002    -3.3935246333935541E-002
   7.0399999999999990E-002    -4.2507435132765468E-002
   7.1249999999999980E-002    -5.0850646876952205E-002
   7.2099999999999997E-002    -5.8900179895743039E-002
   7.2949999999999987E-002    -6.6593886737130750E-002
   7.3800000000000004E-002    -7.3872756282243060E-002
   7.4649999999999994E-002    -8.0681456794867587E-002
   7.5499999999999984E-002    -8.6969004151383186E-002
   7.6350000000000001E-002    -9.2689289482085213E-002
   7.7199999999999991E-002    -9.7801494324401092E-002
   7.8049999999999981E-002   -0.10227041446441922
   7.8899999999999998E-002   -0.10606679435214553
   7.9749999999999988E-002   -0.10916759690368526
   8.0600000000000005E-002   -0.11155612262469439
   8.1449999999999995E-002   -0.11322218043483574
   8.2299999999999984E-002   -0.11416215791944045
   8.3150000000000002E-002   -0.11437895856191019
   8.3999999999999991E-002   -0.11388194598690649
   8.4849999999999981E-002   -0.11268668742697176
   8.5699999999999998E-002   -0.11081464791192246
   8.6549999999999988E-002   -0.10829284457844979
   8.7400000000000005E-002   -0.10515345123583146
   8.8249999999999995E-002   -0.10143337520921480
   8.9099999999999985E-002    -9.7173784572551047E-002
   8.9950000000000002E-002    -9.2419498008803280E-002
   9.0799999999999992E-002    -8.7218652502804084E-002
   9.1649999999999981E-002    -8.1622086349645032E-002
   9.2499999999999999E-002    -7.5682743474971850E-002
   9.3349999999999989E-002    -6.9455200276136136E-002
   9.4200000000000006E-002    -6.2994892603702377E-002
   9.5049999999999996E-002    -5.6357548937837905E-002
   9.5899999999999985E-002    -4.9598664660401463E-002
   9.6750000000000003E-002    -4.2772817583469715E-002
   9.7599999999999992E-002    -3.5933255822306887E-002
   9.8449999999999982E-002    -2.9131406687597724E-002
   9.9299999999999999E-002    -2.2416407744569568E-002
  0.10014999999999999         -1.5834834090666678E-002
  0.10099999999999998         -9.4302766463065860E-003
  0.10185000000000000         -3.2430031513150030E-003
  0.10269999999999999          2.6902892667867613E-003
  0.10355000000000000          8.3366845356734106E-003
  0.10439999999999999          1.3667237931999839E-002
  0.10524999999999998          1.8657115731194437E-002
  0.10610000000000000          2.3285645233505573E-002
  0.10694999999999999          2.7536293904859298E-002
  0.10779999999999998          3.1396655522843403E-002
  0.10865000000000000          3.4858315415385609E-002
  0.10949999999999999          3.7916688842024537E-002
  0.11035000000000000          4.0570913766368788E-002
  0.11119999999999999          4.2823680147344424E-002
  0.11204999999999998          4.4681056636621148E-002
  0.11290000000000000          4.6152221676776219E-002
  0.11374999999999999          4.7249217193974492E-002
  0.11459999999999998          4.7986635674253784E-002
  0.11545000000000000          4.8381241260148804E-002
  0.11629999999999999          4.8451718858521300E-002
  0.11715000000000000          4.8218352088827035E-002
  0.11799999999999999          4.7702724955293013E-002
  0.11884999999999998          4.6927464345342070E-002
  0.11970000000000000          4.5915926683953681E-002
  0.12054999999999999          4.4692020170382762E-002
  0.12139999999999998          4.3279895377526877E-002
  0.12225000000000000          4.1703665301126978E-002
  0.12309999999999999          3.9987147678472806E-002
  0.12395000000000000          3.8153612561673350E-002
  0.12479999999999999          3.6225592651895781E-002
  0.12564999999999998          3.4224722742911794E-002
  0.12650000000000000          3.2171587570278139E-002
  0.12734999999999999          3.0085607116475246E-002
  0.12819999999999998          2.7984989858014189E-002
  0.12905000000000000          2.5886674075590716E-002
  0.12989999999999999          2.3806250110413388E-002
  0.13074999999999998          2.1757914663900244E-002
  0.13159999999999999          1.9754429004860626E-002
  0.13245000000000001          1.7807069972384404E-002
  0.13329999999999997          1.5925616540208683E-002
  0.13414999999999999          1.4118371870450078E-002
  0.13500000000000001          1.2392219230609071E-002
  0.13584999999999997          1.0752688456870581E-002
  0.13669999999999999          9.2040298277619899E-003
  0.13755000000000001          7.7493329711275380E-003
  0.13839999999999997          6.3905992312075699E-003
  0.13924999999999998          5.1288246952971286E-003
  0.14010000000000000          3.9640683216285392E-003
  0.14094999999999996          2.8955282335183081E-003
  0.14179999999999998          1.9216049760580115E-003
  0.14265000000000000          1.0400148729259769E-003
  0.14350000000000002          2.4788143803076903E-004
  0.14434999999999998         -4.5818266990563917E-004
  0.14520000000000000         -1.0819684998697699E-003
  0.14605000000000001         -1.6275916640767214E-003
  0.14689999999999998         -2.0994393963453721E-003
  0.14774999999999999         -2.5021075448624051E-003
  0.14860000000000001         -2.8403497019373700E-003
  0.14944999999999997         -3.1190055747183248E-003
  0.15029999999999999         -3.3429341152780398E-003
  0.15115000000000001         -3.5169406518212923E-003
  0.15199999999999997         -3.6456967187871825E-003
  0.15284999999999999         -3.7336907657269142E-003
  0.15370000000000000         -3.7852085145840542E-003
  0.15454999999999997         -3.8043289756819259E-003
  0.15539999999999998         -3.7949297059454660E-003
  0.15625000000000000         -3.7607021931987594E-003
  0.15709999999999996         -3.7051718789894062E-003
  0.15794999999999998         -3.6316892438617069E-003
  0.15880000000000000         -3.5434002790496956E-003
  0.15965000000000001         -3.4432089001646795E-003
  0.16049999999999998         -3.3337265016745886E-003
  0.16134999999999999         -3.2172426182027303E-003
  0.16220000000000001         -3.0957100620109270E-003
  0.16304999999999997         -2.9707848416965768E-003
  0.16389999999999999         -2.8438766728160403E-003
  0.16475000000000001         -2.7162113250635530E-003
  0.16559999999999997         -2.5889064030595473E-003
  0.16644999999999999         -2.4629993160203848E-003
  0.16730000000000000         -2.3394487190885722E-003
  0.16814999999999997         -2.2191151388136167E-003
  0.16899999999999998         -2.1027155201260414E-003
  0.16985000000000000         -1.9907834197997838E-003
  0.17069999999999996         -1.8836500445950253E-003
  0.17154999999999998         -1.7814545402747304E-003
  0.17240000000000000         -1.6841842377986545E-003
  0.17325000000000002         -1.5917340963585995E-003
  0.17409999999999998         -1.5039740771565174E-003
  0.17494999999999999         -1.4207998430764009E-003
  0.17580000000000001         -1.3421582913843019E-003
  0.17664999999999997         -1.2680312046401874E-003
  0.17749999999999999         -1.1983970716649014E-003
  0.17835000000000001         -1.1331957766450176E-003
  0.17919999999999997         -1.0722973283207927E-003
  0.18004999999999999         -1.0154873289615659E-003
  0.18090000000000001         -9.6248375646682601E-004
  0.18174999999999997         -9.1296795627409993E-004
  0.18259999999999998         -8.6662634610866290E-004
  0.18345000000000000         -8.2318207407517112E-004
  0.18429999999999996         -7.8241516378927095E-004
  0.18514999999999998         -7.4416307998620543E-004
  0.18600000000000000         -7.0829853494062023E-004
  0.18684999999999996         -6.7470675900610218E-004
  0.18769999999999998         -6.4326275080635689E-004
  0.18855000000000000         -6.1381577935535714E-004
  0.18940000000000001         -5.8619549946869760E-004
  0.19024999999999997         -5.6022322341437391E-004
  0.19109999999999999         -5.3572644297251830E-004
  0.19195000000000001         -5.1255323153446425E-004
  0.19279999999999997         -4.9057534807343773E-004
  0.19364999999999999         -4.6968243608026008E-004
  0.19450000000000001         -4.4977203344126763E-004
  0.19534999999999997         -4.3074486939050386E-004
  0.19619999999999999         -4.1250048964041052E-004
  0.19705000000000000         -3.9493797034420396E-004
  0.19789999999999996         -3.7796905905109125E-004
  0.19874999999999998         -3.6152478643914325E-004
  0.19960000000000000         -3.4556315696963598E-004
  0.20044999999999996         -3.3006700407372456E-004
  0.20129999999999998         -3.1503667786208351E-004
  0.20215000000000000         -3.0047558619855104E-004
  0.20300000000000001         -2.8637659431780078E-004
  0.20384999999999998         -2.7271728936928684E-004
  0.20469999999999999         -2.5946068235125068E-004
  0.20555000000000001         -2.4656896183075883E-004
  0.20639999999999997         -2.3401670161296253E-004
  0.20724999999999999         -2.2180188748417012E-004
  0.20810000000000001         -2.0995193392386174E-004
  0.20894999999999997         -1.9851534009418753E-004
  0.20979999999999999         -1.8754630975599404E-004
  0.21065000000000000         -1.7708698378373589E-004
  0.21149999999999997         -1.6715551655584922E-004
  0.21234999999999998         -1.5774645340420776E-004
  0.21320000000000000         -1.4883741966803478E-004
  0.21404999999999996         -1.4040450627230479E-004
  0.21489999999999998         -1.3244195306218897E-004
  0.21575000000000000         -1.2497245117211263E-004
  0.21659999999999996         -1.1804472058711274E-004
  0.21744999999999998         -1.1172292136756464E-004
  0.21829999999999999         -1.0606601017867465E-004
  0.21915000000000001         -1.0110607373479063E-004
  0.21999999999999997         -9.6837048380356072E-005
  0.22084999999999999         -9.3216716958078582E-005
  0.22170000000000001         -9.0179373516070848E-005
  0.22254999999999997         -8.7657880121641356E-005
  0.22339999999999999         -8.5606509115303037E-005
  0.22425000000000000         -8.4011287541221755E-005
  0.22509999999999997         -8.2888839455292940E-005
  0.22594999999999998         -8.2270470086257162E-005
  0.22680000000000000         -8.2176392927398701E-005
  0.22764999999999996         -8.2592892825192709E-005
  0.22849999999999998         -8.3460016632270123E-005
  0.22935000000000000         -8.4674092689333608E-005
  0.23019999999999996         -8.6105334904828021E-005
  0.23104999999999998         -8.7624244246960209E-005
  0.23190000000000000         -8.9130595947626705E-005
  0.23275000000000001         -9.0571373743486162E-005
  0.23359999999999997         -9.1942449692904138E-005
  0.23444999999999999         -9.3274225323487341E-005
  0.23530000000000001         -9.4604307408465753E-005
  0.23614999999999997         -9.5949835706916943E-005
  0.23699999999999999         -9.7288930462039049E-005
  0.23785000000000001         -9.8554568209712767E-005
  0.23869999999999997         -9.9645004870420499E-005
  0.23954999999999999         -1.0044907715447534E-004
  0.24040000000000000         -1.0087322584449905E-004
  0.24124999999999996         -1.0086236800499072E-004
  0.24209999999999998         -1.0040987146376181E-004
  0.24295000000000000         -9.9550645707726322E-005
  0.24379999999999996         -9.8342502707317371E-005
  0.24464999999999998         -9.6843241422545550E-005
  0.24550000000000000         -9.5089654892666962E-005
  0.24634999999999996         -9.3086220828152608E-005
  0.24719999999999998         -9.0804580880774206E-005
  0.24804999999999999         -8.8195404264682661E-005
  0.24890000000000001         -8.5206157948413826E-005
  0.24974999999999997         -8.1798795534645461E-005
  0.25059999999999999         -7.7962552197595426E-005
  0.25145000000000001         -7.3717293543046721E-005
  0.25229999999999997         -6.9109472375326997E-005
  0.25314999999999999         -6.4203644674071811E-005
  0.25400000000000000         -5.9071357841866426E-005
  0.25484999999999997         -5.3781386601154958E-005
  0.25569999999999998         -4.8392808028317095E-005
  0.25655000000000000         -4.2951297544304065E-005
  0.25739999999999996         -3.7489056186149212E-005
  0.25824999999999998         -3.2025228514141379E-005
  0.25910000000000000         -2.6568386283346957E-005
  0.25994999999999996         -2.1120423688553833E-005
  0.26079999999999998         -1.5682830179053804E-005
  0.26164999999999999         -1.0265647474426595E-005
  0.26249999999999996         -4.8966705115310917E-006
  0.26334999999999997          3.7119474986658061E-007
  0.26419999999999999          5.4578317026363747E-006
  0.26505000000000001          1.0260013656640343E-005
  0.26589999999999997          1.4664435613593368E-005
  0.26674999999999999          1.8565158865099060E-005
  0.26760000000000000          2.1880622281852289E-005
  0.26844999999999997          2.4566589063052407E-005
  0.26929999999999998          2.6618037911292468E-005
  0.27015000000000000          2.8061973916706635E-005
  0.27099999999999996          2.8939721455978209E-005
  0.27184999999999998          2.9285167545269252E-005
  0.27270000000000000          2.9108845908430769E-005
  0.27354999999999996          2.8390499551058242E-005
  0.27439999999999998          2.7083164631309028E-005
  0.27524999999999999          2.5129625275412542E-005
  0.27609999999999996          2.2485917768277075E-005
  0.27694999999999997          1.9143433043881840E-005
  0.27779999999999999          1.5141582362629922E-005
  0.27865000000000001          1.0566185244094683E-005
  0.27949999999999997          5.5364013750547908E-006
  0.28034999999999999          1.8146513248820863E-007
  0.28120000000000001         -5.3831804467069354E-006
  0.28204999999999997         -1.1072253299050720E-005
  0.28289999999999998         -1.6835437429557346E-005
  0.28375000000000000         -2.2647536297217256E-005
  0.28459999999999996         -2.8488826812376464E-005
  0.28544999999999998         -3.4323826700272925E-005
  0.28630000000000000         -4.0085016549338302E-005
  0.28714999999999996         -4.5668009528114541E-005
  0.28799999999999998         -5.0941492529012677E-005
  0.28885000000000000         -5.5766268341181260E-005
  0.28969999999999996         -6.0019255957137391E-005
  0.29054999999999997         -6.3614324095834931E-005
  0.29139999999999999         -6.6510906683360985E-005
  0.29224999999999995         -6.8712105187239319E-005
  0.29309999999999997         -7.0250569065049911E-005
  0.29394999999999999         -7.1167882506574008E-005
  0.29480000000000001         -7.1495411297122871E-005
  0.29564999999999997         -7.1242077210058164E-005
  0.29649999999999999         -7.0393813490315896E-005
  0.29735000000000000         -6.8922610871623497E-005
  0.29819999999999997         -6.6802148092773059E-005
  0.29904999999999998         -6.4024335086569625E-005
  0.29990000000000000         -6.0610824928033967E-005
  0.30074999999999996         -5.6615536164392472E-005
  0.30159999999999998         -5.2118661299454796E-005
  0.30245000000000000         -4.7213217383212847E-005
  0.30329999999999996         -4.1990165764261729E-005
  0.30414999999999998         -3.6527660487467302E-005
  0.30499999999999999         -3.0885902660955300E-005
  0.30584999999999996         -2.5108333265842065E-005
  0.30669999999999997         -1.9229583189573458E-005
  0.30754999999999999         -1.3286260373484722E-005
  0.30840000000000001         -7.3248557209456075E-006
  0.30924999999999997         -1.4053281828049768E-006
  0.31009999999999999          4.4000474401791470E-006
  0.31095000000000000          1.0013519490606279E-005
  0.31179999999999997          1.5360727327955677E-005
  0.31264999999999998          2.0378861530095396E-005
  0.31350000000000000          2.5021514204090965E-005
  0.31434999999999996          2.9258683501456727E-005
  0.31519999999999998          3.3073275866269810E-005
  0.31605000000000000          3.6454614380965069E-005
  0.31689999999999996          3.9391674862085895E-005
  0.31774999999999998          4.1868269593713848E-005
  0.31859999999999999          4.3861565071723001E-005
  0.31944999999999996          4.5343329926419310E-005
  0.32029999999999997          4.6284635870548401E-005
  0.32114999999999999          4.6660971480993324E-005
  0.32199999999999995          4.6456223464427759E-005
  0.32284999999999997          4.5666985789088047E-005
  0.32369999999999999          4.4303095777332889E-005
  0.32455000000000001          4.2386210849313382E-005
  0.32539999999999997          3.9947174695630028E-005
  0.32624999999999998          3.7021805218205701E-005
  0.32710000000000000          3.3647043131454373E-005
  0.32794999999999996          2.9857765698517821E-005
  0.32879999999999998          2.5685244541276211E-005
  0.32965000000000000          2.1157466591689860E-005
  0.33049999999999996          1.6301549889247433E-005
  0.33134999999999998          1.1148572370500309E-005
  0.33220000000000000          5.7385132791444070E-006
  0.33304999999999996          1.2427392863939536E-007
  0.33389999999999997         -5.6254056096789671E-006
  0.33474999999999999         -1.1426566830741927E-005
  0.33559999999999995         -1.7184027456619061E-005
  0.33644999999999997         -2.2798537802944953E-005
  0.33729999999999999         -2.8176228168458305E-005
  0.33815000000000001         -3.3237042634723945E-005
  0.33899999999999997         -3.7921113912812734E-005
  0.33984999999999999         -4.2190927599417106E-005
  0.34070000000000000         -4.6027785001822624E-005
  0.34154999999999996         -4.9423202842716573E-005
  0.34239999999999998         -5.2368270162799112E-005
  0.34325000000000000         -5.4843979018564036E-005