 -0.12000000000000000          0.0000000000000000
 -0.11914999999999999          0.0000000000000000
 -0.11830000000000000          0.0000000000000000
 -0.11745000000000000          0.0000000000000000
 -0.11660000000000000          0.0000000000000000
 -0.11574999999999999          0.0000000000000000
 -0.11490000000000000          0.0000000000000000
 -0.11405000000000000          0.0000000000000000
 -0.11320000000000000          0.0000000000000000
 -0.11234999999999999          0.0000000000000000
 -0.11150000000000000          0.0000000000000000
 -0.11065000000000000          0.0000000000000000
 -0.10979999999999999          1.6624828447264068E-032
 -0.10894999999999999          2.5542484289338892E-031
 -0.10810000000000000          1.7060933124131071E-030
 -0.10725000000000000          5.5377149393524571E-030
 -0.10639999999999999         -7.8654711887151070E-031
 -0.10554999999999999         -9.8912562519203857E-029
 -0.10470000000000000         -5.3686647059341152E-028
 -0.10385000000000000         -1.6301325308690868E-027
 -0.10299999999999999         -2.6563529620624491E-027
 -0.10214999999999999          1.4675747028726457E-027
 -0.10130000000000000          2.5060715768325125E-026
 -0.10045000000000000          8.9809065093163465E-026
  -9.9599999999999994E-002     1.9408353784692631E-025
  -9.8750000000000004E-002     2.2463474165664503E-025
  -9.7900000000000001E-002    -1.8117441093970365E-025
  -9.7049999999999997E-002    -1.6854907079129066E-024
  -9.6199999999999994E-002    -4.8573076582929397E-024
  -9.5349999999999990E-002    -8.8435438948014008E-024
  -9.4500000000000001E-002    -8.9702339601325433E-024
  -9.3649999999999997E-002     5.4719763691375606E-024
  -9.2799999999999994E-002     4.9513367217980504E-023
  -9.1950000000000004E-002     1.3084984377010474E-022
  -9.1100000000000000E-002     2.2362103134145211E-022
  -9.0249999999999997E-002     2.3275292317868687E-022
  -8.9399999999999993E-002    -2.5474097924799487E-023
  -8.8549999999999990E-002    -7.7586741190681878E-022
  -8.7700000000000000E-002    -2.1097564966669425E-021
  -8.6849999999999997E-002    -3.6630035606652058E-021
  -8.5999999999999993E-002    -4.2435079088560659E-021
  -8.5150000000000003E-002    -1.6919786688133239E-021
  -8.4300000000000000E-002     6.5669011122484695E-021
  -8.3449999999999996E-002     2.1836875196459616E-020
  -8.2600000000000007E-002     4.1286081325901773E-020
  -8.1749999999999989E-002     5.4784841857592598E-020
  -8.0900000000000000E-002     4.3588898670817427E-020
  -8.0049999999999996E-002    -1.5976719226808505E-020
  -7.9199999999999993E-002    -1.4093341556151308E-019
  -7.8350000000000003E-002    -3.2184782994563490E-019
  -7.7499999999999999E-002    -4.9985772655773889E-019
  -7.6649999999999996E-002    -5.5266254341859354E-019
  -7.5800000000000006E-002    -3.0740073582735639E-019
  -7.4949999999999989E-002     4.0195527415775227E-019
  -7.4099999999999999E-002     1.6264098171041135E-018
  -7.3249999999999996E-002     3.1613511472780245E-018
  -7.2399999999999992E-002     4.4264518307776291E-018
  -7.1550000000000002E-002     4.4513293858525255E-018
  -7.0699999999999999E-002     2.0634299930185969E-018
  -6.9849999999999995E-002    -3.6577970429875605E-018
  -6.9000000000000006E-002    -1.2686485079801700E-017
  -6.8149999999999988E-002    -2.3285466117512766E-017
  -6.7299999999999999E-002    -3.1502506613473892E-017
  -6.6449999999999995E-002    -3.1371366306034231E-017
  -6.5599999999999992E-002    -1.6235163005859153E-017
  -6.4750000000000002E-002     1.8635787716141269E-017
  -6.3899999999999998E-002     7.2450388229792421E-017
  -6.3049999999999995E-002     1.3531169333706528E-016
  -6.2199999999999998E-002     1.8626532713936136E-016
  -6.1350000000000002E-002     1.9491187639358741E-016
  -6.0499999999999998E-002     1.2814707164033390E-016
  -5.9650000000000002E-002    -3.7686128095860917E-017
  -5.8799999999999998E-002    -3.0109411082508567E-016
  -5.7950000000000002E-002    -6.2060031504240730E-016
  -5.7099999999999998E-002    -9.0731486189906653E-016
  -5.6249999999999994E-002    -1.0319651853177099E-015
  -5.5400000000000005E-002    -8.5136475827523789E-016
  -5.4550000000000001E-002    -2.5418647899257634E-016
  -5.3699999999999998E-002     7.8152903892297814E-016
  -5.2849999999999994E-002     2.1346840544772628E-015
  -5.2000000000000005E-002     3.5123341371790788E-015
  -5.1150000000000001E-002     4.4669658336971710E-015
  -5.0299999999999997E-002     4.4734670530265085E-015
  -4.9449999999999994E-002     3.0643697879267700E-015
  -4.8600000000000004E-002     2.0355153830358977E-018
  -4.7750000000000001E-002    -4.5528662950760723E-015
  -4.6899999999999997E-002    -9.9291378703892388E-015
  -4.6049999999999994E-002    -1.4940681429038435E-014
  -4.5200000000000004E-002    -1.8024762842985964E-014
  -4.4350000000000001E-002    -1.7527198270697025E-014
  -4.3499999999999997E-002    -1.2101490129082844E-014
  -4.2649999999999993E-002    -1.1532847385479374E-015
  -4.1800000000000004E-002     1.4761541427421422E-014
  -4.0950000000000000E-002     3.3683354639308576E-014
  -4.0099999999999997E-002     5.2225566590983369E-014
  -3.9249999999999993E-002     6.5841485555613584E-014
  -3.8400000000000004E-002     6.9405514125577774E-014
  -3.7550000000000000E-002     5.8094354320117944E-014
  -3.6699999999999997E-002     2.8508502702050285E-014
  -3.5850000000000007E-002    -2.0076442441530199E-014
  -3.5000000000000003E-002    -8.4507268352365320E-014
  -3.4150000000000000E-002    -1.5685532414525293E-013
  -3.3299999999999996E-002    -2.2415276989617031E-013
  -3.2450000000000007E-002    -2.6911910234971604E-013
  -3.1600000000000003E-002    -2.7219002104594943E-013
  -3.0750000000000000E-002    -2.1498534667439256E-013
  -2.9899999999999996E-002    -8.5048051742066716E-014
  -2.9050000000000006E-002     1.1873774770082541E-013
  -2.8200000000000003E-002     3.8109724492996480E-013
  -2.7349999999999999E-002     6.6709963087816287E-013
  -2.6499999999999996E-002     9.2221407663585437E-013
  -2.5650000000000006E-002     1.0770126494676487E-012
  -2.4800000000000003E-002     1.0571734812784578E-012
  -2.3949999999999999E-002     7.9841199529236314E-013
  -2.3099999999999996E-002     2.6466089769953445E-013
  -2.2250000000000006E-002    -5.3351906105086812E-013
  -2.1400000000000002E-002    -1.5243260693340830E-012
  -2.0549999999999999E-002    -2.5683767119551834E-012
  -1.9699999999999995E-002    -3.4647306338574353E-012
  -1.8850000000000006E-002    -3.9719996196514165E-012
  -1.8000000000000002E-002    -3.8449287492795450E-012
  -1.7149999999999999E-002    -2.8838372014918444E-012
  -1.6299999999999995E-002    -9.9082534029558417E-013
  -1.5450000000000005E-002     1.7763933115321375E-012
  -1.4600000000000002E-002     5.1645875843807824E-012
  -1.3749999999999998E-002     8.7114051456630338E-012
  -1.2899999999999995E-002     1.1768977056297871E-011
  -1.2050000000000005E-002     1.3571643834651948E-011
  -1.1200000000000002E-002     1.3348157553990520E-011
  -1.0349999999999998E-002     1.0470315110287605E-011
  -9.5000000000000084E-003     4.6203917545646501E-012
  -8.6500000000000049E-003    -4.0496318988008586E-012
  -7.8000000000000014E-003    -1.4800097207342273E-011
  -6.9499999999999978E-003    -2.6262390341854875E-011
  -6.1000000000000082E-003    -3.6505098564144408E-011
  -5.2500000000000047E-003    -4.3227515322247920E-011
  -4.4000000000000011E-003    -4.4081486560187852E-011
  -3.5499999999999976E-003    -3.7097877891514988E-011
  -2.7000000000000079E-003    -2.1167144190513840E-011
  -1.8500000000000044E-003     3.5006766291317078E-012
  -1.0000000000000009E-003     3.5029833745824861E-011
  -1.4999999999999736E-004     6.9744654472582108E-011
   6.9999999999999230E-004     1.0233256043587360E-010
   1.5499999999999958E-003     1.2635572669470791E-010
   2.3999999999999994E-003     1.3510939790710598E-010
   3.2500000000000029E-003     1.2276147383078646E-010
   4.0999999999999925E-003     8.5632340819448813E-011
   4.9499999999999961E-003     2.3413881304220813E-011
   5.7999999999999996E-003    -5.9910861814708373E-011
   6.6499999999999893E-003    -1.5568860074633899E-010
   7.5000000000000067E-003    -2.5094881814054370E-010
   8.3499999999999963E-003    -3.2958771669704245E-010
   9.1999999999999860E-003    -3.7435724281072911E-010
   1.0050000000000003E-002    -3.6948070119294568E-010
   1.0899999999999993E-002    -3.0357889381987940E-010
   1.1750000000000010E-002    -1.7248337635835968E-010
   1.2600000000000000E-002     1.8538449484472652E-011
   1.3449999999999990E-002     2.5359474731731773E-010
   1.4300000000000007E-002     5.0638564621717009E-010
   1.5149999999999997E-002     7.4203651969949031E-010
   1.5999999999999986E-002     9.2055918869894528E-010
   1.6850000000000004E-002     1.0017463537408154E-009
   1.7699999999999994E-002     9.5106040987133907E-010
   1.8549999999999983E-002     7.4591405268725743E-010
   1.9400000000000001E-002     3.8153386992225138E-010
   2.0249999999999990E-002    -1.2448707102629219E-010
   2.1100000000000008E-002    -7.2988693502461084E-010
   2.1949999999999997E-002    -1.3685001022633328E-009
   2.2799999999999987E-002    -1.9546662425669388E-009
   2.3650000000000004E-002    -2.3915034282825837E-009
   2.4499999999999994E-002    -2.5826517061698919E-009
   2.5349999999999984E-002    -2.4464831381009901E-009
   2.6200000000000001E-002    -1.9311354580065072E-009
   2.7049999999999991E-002    -1.0282126101817096E-009
   2.7900000000000008E-002     2.1716170170804957E-010
   2.8749999999999998E-002     1.7022110071440773E-009
   2.9599999999999987E-002     3.2699372908012693E-009
   3.0450000000000005E-002     4.7208613081355341E-009
   3.1299999999999994E-002     5.8327230334075463E-009
   3.2149999999999984E-002     6.3865168084935941E-009
   3.3000000000000002E-002     6.1963868206472128E-009
   3.3849999999999991E-002     5.1399083621655709E-009
   3.4700000000000009E-002     3.1851957943046626E-009
   3.5549999999999998E-002     4.1100855036490180E-010
   3.6399999999999988E-002    -2.9834222405689093E-009
   3.7250000000000005E-002    -6.6814924853581771E-009
   3.8099999999999995E-002    -1.0267233181592919E-008
   3.8949999999999985E-002    -1.3258725624504852E-008
   3.9800000000000002E-002    -1.5156156721333003E-008
   4.0649999999999992E-002    -1.5501554457761373E-008
   4.1500000000000009E-002    -1.3945149421612659E-008
   4.2349999999999999E-002    -1.0311005778480703E-008
   4.3199999999999988E-002    -4.6530935404636510E-009
   4.4050000000000006E-002     2.7078967009726051E-009
   4.4899999999999995E-002     1.1176027602367943E-008
   4.5749999999999985E-002     1.9905963361959854E-008
   4.6600000000000003E-002     2.7865816684964195E-008
   4.7449999999999992E-002     3.3933835768930026E-008
   4.8299999999999982E-002     3.7021585535933491E-008
   4.9149999999999999E-002     3.6210844311000477E-008
   4.9999999999999989E-002     3.0889961089765327E-008
   5.0850000000000006E-002     2.0874248420841794E-008
   5.1699999999999996E-002     6.4958700755511226E-009
   5.2549999999999986E-002    -1.1349073631226288E-008
   5.3400000000000003E-002    -3.1206891386952474E-008
   5.4249999999999993E-002    -5.1132107312759890E-008
   5.5099999999999982E-002    -6.8817371282263455E-008
   5.5950000000000000E-002    -8.1786958179926656E-008
   5.6799999999999989E-002    -8.7649253366371486E-008
   5.7650000000000007E-002    -8.4393167816165720E-008
   5.8499999999999996E-002    -7.0702015158150999E-008
   5.9349999999999986E-002    -4.6248881424211091E-008
   6.0200000000000004E-002    -1.1928508192331148E-008
   6.1049999999999993E-002     3.0020823244430046E-008
   6.1899999999999983E-002     7.6049077516845048E-008
   6.2750000000000000E-002     1.2150532774053086E-007
   6.3599999999999990E-002     1.6102814043629448E-007
   6.4450000000000007E-002     1.8908767718548714E-007
   6.5299999999999997E-002     2.0062274601102338E-007
   6.6149999999999987E-002     1.9169954387355009E-007
   6.7000000000000004E-002     1.6010929306148014E-007
   6.7849999999999994E-002     1.0582863285003933E-007
   6.8699999999999983E-002     3.1284247943590984E-008
   6.9550000000000001E-002    -5.8611573372378112E-008
   7.0399999999999990E-002    -1.5666449532004582E-007
   7.1249999999999980E-002    -2.5382985899035458E-007
   7.2099999999999997E-002    -3.3985669653222278E-007
   7.2949999999999987E-002    -4.0411379781127423E-007
   7.3800000000000004E-002    -4.3656114282668992E-007
   7.4649999999999994E-002    -4.2882262662548666E-007
   7.5499999999999984E-002    -3.7529360176903117E-007
   7.6350000000000001E-002    -2.7418256343030938E-007
   7.7199999999999991E-002    -1.2835837989584702E-007
   7.8049999999999981E-002     5.4151056247137093E-008
   7.8899999999999998E-002     2.6015314149505039E-007
   7.9749999999999988E-002     4.7187570408755573E-007
   8.0600000000000005E-002     6.6819275153915201E-007
   8.1449999999999995E-002     8.2643609599890935E-007
   8.2299999999999984E-002     9.2465840801564948E-007
   8.3150000000000002E-002     9.4410262003741108E-007
   8.3999999999999991E-002     8.7159225490873973E-007
   8.4849999999999981E-002     7.0157023138213224E-007
   8.5699999999999998E-002     4.3753573774858769E-007
   8.6549999999999988E-002     9.2709974873352695E-008
   8.7400000000000005E-002    -3.1017789597600364E-007
   8.8249999999999995E-002    -7.3999770801245896E-007
   8.9099999999999985E-002    -1.1591624425696000E-006
   8.9950000000000002E-002    -1.5263174456977971E-006
   9.0799999999999992E-002    -1.7996503240002733E-006
   9.1649999999999981E-002    -1.9406357781647776E-006
   9.2499999999999999E-002    -1.9180203968037758E-006
   9.3349999999999989E-002    -1.7117041164701263E-006
   9.4200000000000006E-002    -1.3161679150571787E-006
   9.5049999999999996E-002    -7.4302820950641344E-007
   9.5899999999999985E-002    -2.2267192160507746E-008
   9.6750000000000003E-002     7.9818874830368904E-007
   9.7599999999999992E-002     1.6547532154147016E-006
   9.8449999999999982E-002     2.4723839965215239E-006
   9.9299999999999999E-002     3.1704237625150873E-006
  0.10014999999999999          3.6696426646839589E-006
  0.10099999999999998          3.8998426233233460E-006
  0.10185000000000000          3.8073457703645661E-006
  0.10269999999999999          3.3616285094511447E-006
  0.10355000000000000          2.5604628185405263E-006
  0.10439999999999999          1.4330674264808179E-006
  0.10524999999999998          4.0825231722776007E-008
  0.10610000000000000         -1.5246478880442226E-006
  0.10694999999999999         -3.1462011010447099E-006
  0.10779999999999998         -4.6885399765080997E-006
  0.10865000000000000         -6.0080020142743385E-006
  0.10949999999999999         -6.9642126732917477E-006
  0.11035000000000000         -7.4329193297908524E-006
  0.11119999999999999         -7.3187638123554715E-006
  0.11204999999999998         -6.5669827236225253E-006
  0.11290000000000000         -5.1725120465433402E-006
  0.11374999999999999         -3.1855802992606344E-006
  0.11459999999999998         -7.1268403128940136E-007
  0.11545000000000000          2.0874379783651530E-006
  0.11629999999999999          5.0127766325257648E-006
  0.11715000000000000          7.8314641796777340E-006
  0.11799999999999999          1.0298842676480160E-005
  0.11884999999999998          1.2176815330256723E-005
  0.11970000000000000          1.3254147987007040E-005
  0.12054999999999999          1.3366211626088156E-005
  0.12139999999999998          1.2412619869637596E-005
  0.12225000000000000          1.0371076288386671E-005
  0.12309999999999999          7.3062771668036812E-006
  0.12395000000000000          3.3722819414674516E-006
  0.12479999999999999         -1.1924113623342773E-006
  0.12564999999999998         -6.0774685578471134E-006
  0.12650000000000000         -1.0920635327263093E-005
  0.12734999999999999         -1.5333919468823105E-005
  0.12819999999999998         -1.8934020146928429E-005
  0.12905000000000000         -2.1374473082043289E-005
  0.12989999999999999         -2.2376587221064269E-005
  0.13074999999999998         -2.1756204435112295E-005
  0.13159999999999999         -1.9444047381608550E-005
  0.13245000000000001         -1.5497440803627158E-005
  0.13329999999999997         -1.0102655563088102E-005
  0.13414999999999999         -3.5673668334774159E-006
  0.13500000000000001          3.6962567316305330E-006
  0.13584999999999997          1.1197101293327114E-005
  0.13669999999999999          1.8397693620445626E-005
  0.13755000000000001          2.4751937579175749E-005
  0.13839999999999997          2.9745879871191315E-005
  0.13924999999999998          3.2938537301870343E-005
  0.14010000000000000          3.3999780288341072E-005
  0.14094999999999996          3.2741613744994934E-005
  0.14179999999999998          2.9139565069200348E-005
  0.14265000000000000          2.3341758273177679E-005
  0.14350000000000002          1.5663886027156672E-005
  0.14434999999999998          6.5704025902527590E-006
  0.14520000000000000         -3.3568762253601631E-006
  0.14605000000000001         -1.3460362313330603E-005
  0.14689999999999998         -2.3054573334181569E-005
  0.14774999999999999         -3.1475780985717028E-005
  0.14860000000000001         -3.8130020897089888E-005
  0.14944999999999997         -4.2535628543414187E-005
  0.15029999999999999         -4.4357703968024162E-005
  0.15115000000000001         -4.3432268640816651E-005
  0.15199999999999997         -3.9778581893075348E-005
  0.15284999999999999         -3.3598609115847211E-005
  0.15370000000000000         -2.5263376524732788E-005
  0.15454999999999997         -1.5287181293511810E-005
  0.15539999999999998         -4.2889906002455766E-006
  0.15625000000000000          7.0555983384604915E-006
  0.15709999999999996          1.8068601417955544E-005
  0.15794999999999998          2.8126359191244817E-005
  0.15880000000000000          3.6711972879261548E-005
  0.15965000000000001          4.3458380499495894E-005
  0.16049999999999998          4.8178370263233300E-005
  0.16134999999999999          5.0880521288897662E-005
  0.16220000000000001          5.1769211038537081E-005
  0.16304999999999997          5.1230297261355080E-005
  0.16389999999999999          4.9801022198184269E-005
  0.16475000000000001          4.8128851297251670E-005
  0.16559999999999997          4.6926545177974221E-005
  0.16644999999999999          4.6930841476089518E-005
  0.16730000000000000          4.8866396229355562E-005
  0.16814999999999997          5.3408905806330781E-005
  0.16899999999999998          6.1150227214202066E-005
  0.16985000000000000          7.2570258822624294E-005
  0.17069999999999996          8.8025561864907883E-005
  0.17154999999999998          1.0774893816280489E-004
  0.17240000000000000          1.3188032508367438E-004
  0.17325000000000002          1.6050195348040635E-004
  0.17409999999999998          1.9369382192797538E-004
  0.17494999999999999          2.3160192689485059E-004
  0.17580000000000001          2.7450798976915949E-004
  0.17664999999999997          3.2289364207209416E-004
  0.17749999999999999          3.7751455829918338E-004
  0.17835000000000001          4.3944373627118679E-004
  0.17919999999999997          5.1011220043152409E-004
  0.18004999999999999          5.9129332096505630E-004
  0.18090000000000001          6.8509152131472693E-004
  0.18174999999999997          7.9392210715929887E-004
  0.18259999999999998          9.2046157985241133E-004
  0.18345000000000000          1.0676290696646250E-003
  0.18429999999999996          1.2385056604522487E-003
  0.18514999999999998          1.4363781404878662E-003
  0.18600000000000000          1.6646723855054664E-003
  0.18684999999999996          1.9270035504618905E-003
  0.18769999999999998          2.2271623176152201E-003
  0.18855000000000000          2.5691169341891243E-003
  0.18940000000000001          2.9570572184287550E-003
  0.19024999999999997          3.3953881376062841E-003
  0.19109999999999999          3.8888938764143621E-003
  0.19195000000000001          4.4427331165652747E-003
  0.19279999999999997          5.0625469145057474E-003
  0.19364999999999999          5.7545492429962319E-003
  0.19450000000000001          6.5254622153481396E-003
  0.19534999999999997          7.3825020769951299E-003
  0.19619999999999999          8.3332969492894409E-003
  0.19705000000000000          9.3858895776856820E-003
  0.19789999999999996          1.0548891654600006E-002
  0.19874999999999998          1.1831276059933147E-002
  0.19960000000000000          1.3242626057321244E-002
  0.20044999999999996          1.4792284632941143E-002
  0.20129999999999998          1.6489379892442795E-002
  0.20215000000000000          1.8342157689354543E-002
  0.20300000000000001          2.0358476767041042E-002
  0.20384999999999998          2.2546149976104862E-002
  0.20469999999999999          2.4912003939565431E-002
  0.20555000000000001          2.7461771159351545E-002
  0.20639999999999997          3.0200101776113507E-002
  0.20724999999999999          3.3130103368038427E-002
  0.20810000000000001          3.6253299136248578E-002
  0.20894999999999997          3.9569179313999621E-002
  0.20979999999999999          4.3075043647938828E-002
  0.21065000000000000          4.6766544603361333E-002
  0.21149999999999997          5.0636428030836969E-002
  0.21234999999999998          5.4675913703871912E-002
  0.21320000000000000          5.8870782019525225E-002
  0.21404999999999996          6.3203860761310682E-002
  0.21489999999999998          6.7652109168722552E-002
  0.21575000000000000          7.2190800208229211E-002
  0.21659999999999996          7.6790373717241400E-002
  0.21744999999999998          8.1413691386104159E-002
  0.21829999999999999          8.6020240138057341E-002
  0.21915000000000001          9.0562449057762395E-002
  0.21999999999999997          9.4985451472543614E-002
  0.22084999999999999          9.9230417410084717E-002
  0.22170000000000001         0.10323075389993511
  0.22254999999999997         0.10691569365420794
  0.22339999999999999         0.11020690403864189
  0.22425000000000000         0.11302153242960997
  0.22509999999999997         0.11526977109073225
  0.22594999999999998         0.11685784365872751
  0.22680000000000000         0.11768850648729112
  0.22764999999999996         0.11765826618541807
  0.22849999999999998         0.11667020583703959
  0.22935000000000000         0.11461468063077798
  0.23019999999999996         0.11137884566931323
  0.23104999999999998         0.10685698696547458
  0.23190000000000000         0.10094490039806572
  0.23275000000000001          9.3544505920422572E-002
  0.23359999999999997          8.4555116937710603E-002
  0.23444999999999999          7.3879131615746899E-002
  0.23530000000000001          6.1435686656319669E-002
  0.23614999999999997          4.7161668468563483E-002
  0.23699999999999999          3.1002229016356089E-002
  0.23785000000000001          1.2917858330467630E-002
  0.23869999999999997         -7.1285851516061927E-003
  0.23954999999999999         -2.9152349939328276E-002
  0.24040000000000000         -5.3142430512420111E-002
  0.24124999999999996         -7.9054439766396117E-002
  0.24209999999999998        -0.10682719058533191
  0.24295000000000000        -0.13636627516702041
  0.24379999999999996        -0.16755488125852749
  0.24464999999999998        -0.20025549580009738
  0.24550000000000000        -0.23428852210902074
  0.24634999999999996        -0.26945738994211949
  0.24719999999999998        -0.30552295681045855
  0.24804999999999999        -0.34221591964615450
  0.24890000000000001        -0.37924596869740945
  0.24974999999999997        -0.41630052016729646
  0.25059999999999999        -0.45304452418164254
  0.25145000000000001        -0.48910204850796574
  0.25229999999999997        -0.52408150654711949
  0.25314999999999999        -0.55756696949108309
  0.25400000000000000        -0.58912918795135760
  0.25484999999999997        -0.61834436541967897
  0.25569999999999998        -0.64475885357481988
  0.25655000000000000        -0.66793753718466653
  0.25739999999999996        -0.68744144429418341
  0.25824999999999998        -0.70286664340354443
  0.25910000000000000        -0.71379557778437708
  0.25994999999999996        -0.71982402031308623
  0.26079999999999998        -0.72058686680024397
  0.26164999999999999        -0.71577193357210134
  0.26249999999999996        -0.70512995702738879
  0.26334999999999997        -0.68841317722498685
  0.26419999999999999        -0.66541126886592195
  0.26505000000000001        -0.63597801718311608
  0.26589999999999997        -0.60005336421197697
  0.26674999999999999        -0.55765733267687956
  0.26760000000000000        -0.50886606062039608
  0.26844999999999997        -0.45380016009424939
  0.26929999999999998        -0.39266358705384796
  0.27015000000000000        -0.32574988271010263
  0.27099999999999996        -0.25342452111920183
  0.27184999999999998        -0.17610939746222365
  0.27270000000000000         -9.4279521530972688E-002
  0.27354999999999996         -8.5065637687878060E-003
  0.27439999999999998          8.0585798609365128E-002
  0.27524999999999999         0.17230363605245930
  0.27609999999999996         0.26592795291222393
  0.27694999999999997         0.36070202949266011
  0.27779999999999999         0.45582273679507912
  0.27865000000000001         0.55042481593599524
  0.27949999999999997         0.64362600322940589
  0.28034999999999999         0.73457293629992082
  0.28120000000000001         0.82239746375794798
  0.28204999999999997         0.90625829345839293
  0.28289999999999998         0.98533826361588195
  0.28375000000000000          1.0587895356529842
  0.28459999999999996          1.1258534014905770
  0.28544999999999998          1.1858359874384237
  0.28630000000000000          1.2380937078299006
  0.28714999999999996          1.2820473355455584
  0.28799999999999998          1.3171467159066299
  0.28885000000000000          1.3429748211525536
  0.28969999999999996          1.3591736530660810
  0.29054999999999997          1.3655077596895433
  0.29139999999999999          1.3618407827452317
  0.29224999999999995          1.3481019073456677
  0.29309999999999997          1.3243828272209575
  0.29394999999999999          1.2907997364021888
  0.29480000000000001          1.2476180778914807
  0.29564999999999997          1.1951916213557667
  0.29649999999999999          1.1339838696311044
  0.29735000000000000          1.0645224973488037
  0.29819999999999997         0.98736304213988380
  0.29904999999999998         0.90313465549328931
  0.29990000000000000         0.81260481235171800
  0.30074999999999996         0.71662512345929241
  0.30159999999999998         0.61607281870600228
  0.30245000000000000         0.51182849676055930
  0.30329999999999996         0.40478028964490964
  0.30414999999999998         0.29589873487198737
  0.30499999999999999         0.18614008957724704
  0.30584999999999996          7.6447358512439501E-002
  0.30669999999999997         -3.2283285970017367E-002
  0.30754999999999999        -0.13916684478968613
  0.30840000000000001        -0.24333755064912604
  0.30924999999999997        -0.34397348503156056
  0.31009999999999999        -0.44029399659146018
  0.31095000000000000        -0.53155607962082463
  0.31179999999999997        -0.61705345395005495
  0.31264999999999998        -0.69620312694999165
  0.31350000000000000        -0.76851924909623970
  0.31434999999999996        -0.83361933720724468
  0.31519999999999998        -0.89116219907908989
  0.31605000000000000        -0.94082453897266149
  0.31689999999999996        -0.98238316939845771
  0.31774999999999998         -1.0157593780958369
  0.31859999999999999         -1.0409964548378075
  0.31944999999999996         -1.0581810502625499
  0.32029999999999997         -1.0674001221273559
  0.32114999999999999         -1.0687810675650347
  0.32199999999999995         -1.0625559245092822
  0.32284999999999997         -1.0491278857853896
  0.32369999999999999         -1.0289150605011590
  0.32455000000000001         -1.0023621819658992
  0.32539999999999997        -0.96990260263542183
  0.32624999999999998        -0.93199568188229920
  0.32710000000000000        -0.88923844279780895
  0.32794999999999996        -0.84225121761667099
  0.32879999999999998        -0.79164840973192130
  0.32965000000000000        -0.73794620194416527
  0.33049999999999996        -0.68168714209284320
  0.33134999999999998        -0.62342921978289523
  0.33220000000000000        -0.56377168159932134
  0.33304999999999996        -0.50325657937776391
  0.33389999999999997        -0.44244097061256210
  0.33474999999999999        -0.38185498011374530
  0.33559999999999995        -0.32196702640498487
  0.33644999999999997        -0.26321214105259777
  0.33729999999999999        -0.20601620601915743
  0.33815000000000001        -0.15074994881675008
  0.33899999999999997         -9.7763085210124639E-002
  0.33984999999999999         -4.7320035919510256E-002
  0.34070000000000000          3.5897408803307884E-004
  0.34154999999999996          4.5076406240824804E-002
  0.34239999999999998          8.6658895643441716E-002
  0.34325000000000000         0.12494800113186388
  0.34409999999999996         0.15983017391215676
  0.34494999999999998         0.19124504868340092
  0.34580000000000000         0.21918648975719071
  0.34664999999999996         0.24367765858137558
  0.34749999999999998         0.26478741556979413
  0.34834999999999999         0.28258970125570609
  0.34919999999999995         0.29720072778150441
  0.35004999999999997         0.30872284246136938
  0.35089999999999999         0.31725974386932265
  0.35174999999999995         0.32296121664954147
  0.35259999999999997         0.32603385419255759
  0.35344999999999999         0.32669649333099637