 -0.12000000000000000          0.0000000000000000
 -0.11914999999999999          0.0000000000000000
 -0.11830000000000000          0.0000000000000000
 -0.11745000000000000          0.0000000000000000
 -0.11660000000000000          0.0000000000000000
 -0.11574999999999999          0.0000000000000000
 -0.11490000000000000          0.0000000000000000
 -0.11405000000000000          0.0000000000000000
 -0.11320000000000000          0.0000000000000000
 -0.11234999999999999          0.0000000000000000
 -0.11150000000000000         -7.5852408736002005E-029
 -0.11065000000000000         -1.0220590202295327E-027
 -0.10979999999999999         -6.4858736494265908E-027
 -0.10894999999999999         -2.3955301413161085E-026
 -0.10810000000000000         -4.4208461531566724E-026
 -0.10725000000000000          5.6480875590115188E-026
 -0.10639999999999999          7.4849095083903391E-025
 -0.10554999999999999          3.0735263139714193E-024
 -0.10470000000000000          8.1002772742735002E-024
 -0.10385000000000000          1.3930506124427515E-023
 -0.10299999999999999          8.5601097962689393E-024
 -0.10214999999999999         -3.9527570671480049E-023
 -0.10130000000000000         -1.8130819819602753E-022
 -0.10045000000000000         -4.5181258381090240E-022
  -9.9599999999999994E-002    -7.6815854841972909E-022
  -9.8750000000000004E-002    -7.5965264839797006E-022
  -9.7900000000000001E-002     3.7964916414533956E-022
  -9.7049999999999997E-002     3.7785382647566939E-021
  -9.6199999999999994E-002     1.0161580150121920E-020
  -9.5349999999999990E-002     1.8245852503370879E-020
  -9.4500000000000001E-002     2.2521303944756029E-020
  -9.3649999999999997E-002     1.1698872957629117E-020
  -9.2799999999999994E-002    -2.9678897017080759E-020
  -9.1950000000000004E-002    -1.1346237686917030E-019
  -9.1100000000000000E-002    -2.3245538802086120E-019
  -9.0249999999999997E-002    -3.4038261534847830E-019
  -8.9399999999999993E-002    -3.3764743996945866E-019
  -8.8549999999999990E-002    -8.0417077988640995E-020
  -8.7700000000000000E-002     5.6797566307285852E-019
  -8.6849999999999997E-002     1.6352302095319408E-018
  -8.5999999999999993E-002     2.9066392605673474E-018
  -8.5150000000000003E-002     3.8169354536016410E-018
  -8.4300000000000000E-002     3.4579046359814150E-018
  -8.3449999999999996E-002     7.9507929408942581E-019
  -8.2600000000000007E-002    -4.8659275930366182E-018
  -8.1749999999999989E-002    -1.3238644980886317E-017
  -8.0900000000000000E-002    -2.2466840839632761E-017
  -8.0049999999999996E-002    -2.8930485430725963E-017
  -7.9199999999999993E-002    -2.7780854319128703E-017
  -7.8350000000000003E-002    -1.4336742384230407E-017
  -7.7499999999999999E-002     1.3912917165046873E-017
  -7.6649999999999996E-002     5.5380706527296844E-017
  -7.5800000000000006E-002     1.0343870652679174E-016
  -7.4949999999999989E-002     1.4714180094995523E-016
  -7.4099999999999999E-002     1.7352811598455292E-016
  -7.3249999999999996E-002     1.7031593658018830E-016
  -7.2399999999999992E-002     1.2707230425638943E-016
  -7.1550000000000002E-002     3.3289234442243351E-017
  -7.0699999999999999E-002    -1.2611798166543877E-016
  -6.9849999999999995E-002    -3.7387455493561117E-016
  -6.9000000000000006E-002    -7.3460131184596736E-016
  -6.8149999999999988E-002    -1.2122865547000422E-015
  -6.7299999999999999E-002    -1.7480976261115030E-015
  -6.6449999999999995E-002    -2.1676247570872394E-015
  -6.5599999999999992E-002    -2.1433218157514933E-015
  -6.4750000000000002E-002    -1.2122820633295433E-015
  -6.3899999999999998E-002     1.1086251030972396E-015
  -6.3049999999999995E-002     5.0893621497360644E-015
  -6.2199999999999998E-002     1.0462933361188762E-014
  -6.1350000000000002E-002     1.6107307562066878E-014
  -6.0499999999999998E-002     1.9894213473297983E-014
  -5.9650000000000002E-002     1.8893736734569956E-014
  -5.8799999999999998E-002     1.0074887254100686E-014
  -5.7950000000000002E-002    -8.4982314339086730E-015
  -5.7099999999999998E-002    -3.6196190925665060E-014
  -5.6249999999999994E-002    -6.8544931306393241E-014
  -5.5400000000000005E-002    -9.6766920177979465E-014
  -5.4550000000000001E-002    -1.0875123584594635E-013
  -5.3699999999999998E-002    -9.1776489966210553E-014
  -5.2849999999999994E-002    -3.6764335832920240E-014
  -5.2000000000000005E-002     5.6850792772468112E-014
  -5.1150000000000001E-002     1.7717568218811883E-013
  -5.0299999999999997E-002     2.9864052239345905E-013
  -4.9449999999999994E-002     3.8500604754950458E-013
  -4.8600000000000004E-002     3.9709602583390950E-013
  -4.7750000000000001E-002     3.0423996880619068E-013
  -4.6899999999999997E-002     9.6755318562983781E-014
  -4.6049999999999994E-002    -2.0442346910863983E-013
  -4.5200000000000004E-002    -5.4505370932084462E-013
  -4.4350000000000001E-002    -8.4473080692642153E-013
  -4.3499999999999997E-002    -1.0142533699297619E-012
  -4.2649999999999993E-002    -9.8026058402058475E-013
  -4.1800000000000004E-002    -7.1094013771433730E-013
  -4.0950000000000000E-002    -2.3470488778556083E-013
  -4.0099999999999997E-002     3.5595172347080457E-013
  -3.9249999999999993E-002     9.2027499105368416E-013
  -3.8400000000000004E-002     1.3043778251215310E-012
  -3.7550000000000000E-002     1.3888978136341888E-012
  -3.6699999999999997E-002     1.1366614822619559E-012
  -3.5850000000000007E-002     6.2478180735837610E-013
  -3.5000000000000003E-002     4.6505548780896681E-014
  -3.4150000000000000E-002    -3.2645804887186367E-013
  -3.3299999999999996E-002    -2.2046426771514716E-013
  -3.2450000000000007E-002     5.3727851847364601E-013
  -3.1600000000000003E-002     1.9137043592571676E-012
  -3.0750000000000000E-002     3.5948551135762459E-012
  -2.9899999999999996E-002     4.9743152321251607E-012
  -2.9050000000000006E-002     5.2308677471101115E-012
  -2.8200000000000003E-002     3.5045651163787544E-012
  -2.7349999999999999E-002    -8.4426992215084984E-013
  -2.6499999999999996E-002    -7.9374615781462490E-012
  -2.5650000000000006E-002    -1.7113179536116247E-011
  -2.4800000000000003E-002    -2.6778713479602942E-011
  -2.3949999999999999E-002    -3.4465378227030271E-011
  -2.3099999999999996E-002    -3.7144042180052877E-011
  -2.2250000000000006E-002    -3.1808637790909330E-011
  -2.1400000000000002E-002    -1.6265090247519971E-011
  -2.0549999999999999E-002     1.0012781815089386E-011
  -1.9699999999999995E-002     4.5159762935598245E-011
  -1.8850000000000006E-002     8.4554380223736474E-011
  -1.8000000000000002E-002     1.2100920794283361E-010
  -1.7149999999999999E-002     1.4562637393695227E-010
  -1.6299999999999995E-002     1.4928936474994999E-010
  -1.5450000000000005E-002     1.2459493480402229E-010
  -1.4600000000000002E-002     6.7879428890179523E-011
  -1.3749999999999998E-002    -1.9101046596800453E-011
  -1.2899999999999995E-002    -1.2827719824016591E-010
  -1.2050000000000005E-002    -2.4549102383589664E-010
  -1.1200000000000002E-002    -3.5197110715424703E-010
  -1.0349999999999998E-002    -4.2692512190155311E-010
  -9.5000000000000084E-003    -4.5087215982833564E-010
  -8.6500000000000049E-003    -4.0914361081407233E-010
  -7.8000000000000014E-003    -2.9492381474482035E-010
  -6.9499999999999978E-003    -1.1127783871400435E-010
  -6.1000000000000082E-003     1.2820081154578588E-010
  -5.2500000000000047E-003     4.0022499786296403E-010
  -4.4000000000000011E-003     6.7398777290135281E-010
  -3.5499999999999976E-003     9.1432048418079898E-010
  -2.7000000000000079E-003     1.0853988456195162E-009
  -1.8500000000000044E-003     1.1545804830355018E-009
  -1.0000000000000009E-003     1.0960410824340699E-009
  -1.4999999999999736E-004     8.9399903466071239E-010
   6.9999999999999230E-004     5.4536926662646330E-010
   1.5499999999999958E-003     6.1739981873522379E-011
   2.3999999999999994E-003    -5.2947104183803204E-010
   3.2500000000000029E-003    -1.1849506868649322E-009
   4.0999999999999925E-003    -1.8468135558264965E-009
   4.9499999999999961E-003    -2.4454904671439127E-009
   5.7999999999999996E-003    -2.9042743609587043E-009
   6.6499999999999893E-003    -3.1455087090498756E-009
   7.5000000000000067E-003    -3.0979942579968009E-009
   8.3499999999999963E-003    -2.7051432220551119E-009
   9.1999999999999860E-003    -1.9330279747856945E-009
   1.0050000000000003E-002    -7.7788281806613068E-010
   1.0899999999999993E-002     7.2750479598609936E-010
   1.1750000000000010E-002     2.5090453484663475E-009
   1.2600000000000000E-002     4.4486395809474248E-009
   1.3449999999999990E-002     6.3840657123404376E-009
   1.4300000000000007E-002     8.1121737037823306E-009
   1.5149999999999997E-002     9.3969195753985192E-009
   1.5999999999999986E-002     9.9836843808602439E-009
   1.6850000000000004E-002     9.6214137226810146E-009
   1.7699999999999994E-002     8.0933528367980924E-009
   1.8549999999999983E-002     5.2557543344487161E-009
   1.9400000000000001E-002     1.0815190217545870E-009
   2.0249999999999990E-002    -4.2970237823233634E-009
   2.1100000000000008E-002    -1.0554878183579818E-008
   2.1949999999999997E-002    -1.7160474183581965E-008
   2.2799999999999987E-002    -2.3391361429883389E-008
   2.3650000000000004E-002    -2.8385939426517244E-008
   2.4499999999999994E-002    -3.1233431530848698E-008
   2.5349999999999984E-002    -3.1094715932618883E-008
   2.6200000000000001E-002    -2.7339539117298725E-008
   2.7049999999999991E-002    -1.9677639706328635E-008
   2.7900000000000008E-002    -8.2590097405068521E-009
   2.8749999999999998E-002     6.2803342529343162E-009
   2.9599999999999987E-002     2.2840796962639323E-008
   3.0450000000000005E-002     3.9951957159462392E-008
   3.1299999999999994E-002     5.5920598860523091E-008
   3.2149999999999984E-002     6.9007751860049926E-008
   3.3000000000000002E-002     7.7601187016626037E-008
   3.3849999999999991E-002     8.0355190324540510E-008
   3.4700000000000009E-002     7.6278008072638745E-008
   3.5549999999999998E-002     6.4770691431288129E-008
   3.6399999999999988E-002     4.5638874809028599E-008
   3.7250000000000005E-002     1.9110227536083049E-008
   3.8099999999999995E-002    -1.4110789151581375E-008
   3.8949999999999985E-002    -5.2735592643929249E-008
   3.9800000000000002E-002    -9.4744236099416032E-008
   4.0649999999999992E-002    -1.3724594786546177E-007
   4.1500000000000009E-002    -1.7642010857717789E-007
   4.2349999999999999E-002    -2.0761753653466420E-007
   4.3199999999999988E-002    -2.2568291673707013E-007
   4.4050000000000006E-002    -2.2551232706941730E-007
   4.4899999999999995E-002    -2.0279881681370983E-007
   4.5749999999999985E-002    -1.5485851943509420E-007
   4.6600000000000003E-002    -8.1389940423627829E-008
   4.7449999999999992E-002     1.4994553832242094E-008
   4.8299999999999982E-002     1.2859137506548396E-007
   4.9149999999999999E-002     2.5084313921072596E-007
   4.9999999999999989E-002     3.7096685323989901E-007
   5.0850000000000006E-002     4.7688322897258735E-007
   5.1699999999999996E-002     5.5630429418518881E-007
   5.2549999999999986E-002     5.9783465966937103E-007
   5.3400000000000003E-002     5.9198734233127251E-007
   5.4249999999999993E-002     5.3205764337279152E-007
   5.5099999999999982E-002     4.1486220150767861E-007
   5.5950000000000000E-002     2.4137977407667880E-007
   5.6799999999999989E-002     1.7308030724619370E-008
   5.7650000000000007E-002    -2.4651097053018309E-007
   5.8499999999999996E-002    -5.3391592479897785E-007
   5.9349999999999986E-002    -8.2366676561144638E-007
   6.0200000000000004E-002    -1.0902966769166868E-006
   6.1049999999999993E-002    -1.3057092954577108E-006
   6.1899999999999983E-002    -1.4415156869578857E-006
   6.2750000000000000E-002    -1.4719645475926290E-006
   6.3599999999999990E-002    -1.3771133780555187E-006
   6.4450000000000007E-002    -1.1458356367827146E-006
   6.5299999999999997E-002    -7.7820814179914997E-007
   6.6149999999999987E-002    -2.8693294100805011E-007
   6.7000000000000004E-002     3.0246074525566723E-007
   6.7849999999999994E-002     9.5262010709645988E-007
   6.8699999999999983E-002     1.6164686758087531E-006
   6.9550000000000001E-002     2.2401707616134694E-006
   7.0399999999999990E-002     2.7667016480214191E-006
   7.1249999999999980E-002     3.1398531214079907E-006
   7.2099999999999997E-002     3.3085226448120456E-006
   7.2949999999999987E-002     3.2312027257538548E-006
   7.3800000000000004E-002     2.8804772022200175E-006
   7.4649999999999994E-002     2.2472905447286678E-006
   7.5499999999999984E-002     1.3445428953366791E-006
   7.6350000000000001E-002     2.0944813908539790E-007
   7.7199999999999991E-002    -1.0959498291336880E-006
   7.8049999999999981E-002    -2.4866140325681784E-006
   7.8899999999999998E-002    -3.8589329725729417E-006
   7.9749999999999988E-002    -5.0977281672549066E-006
   8.0600000000000005E-002    -6.0852586309982936E-006
   8.1449999999999995E-002    -6.7114701783422632E-006
   8.2299999999999984E-002    -6.8844429053064461E-006
   8.3150000000000002E-002    -6.5401121194472756E-006
   8.3999999999999991E-002    -5.6502013858554558E-006
   8.4849999999999981E-002    -4.2276201888061610E-006
   8.5699999999999998E-002    -2.3288958024490067E-006
   8.6549999999999988E-002    -5.3263736875954770E-008
   8.7400000000000005E-002     2.4616386940612035E-006
   8.8249999999999995E-002     5.0475276447841402E-006
   8.9099999999999985E-002     7.5163476538331495E-006
   8.9950000000000002E-002     9.6736721703006534E-006
   9.0799999999999992E-002     1.1333774228075858E-005
   9.1649999999999981E-002     1.2334967230417108E-005
   9.2499999999999999E-002     1.2553820063673248E-005
   9.3349999999999989E-002     1.1916677851640680E-005
   9.4200000000000006E-002     1.0407063488976712E-005
   9.5049999999999996E-002     8.0685667599578481E-006
   9.5899999999999985E-002     5.0027877183774738E-006
   9.6750000000000003E-002     1.3633809747226940E-006
   9.7599999999999992E-002    -2.6528938877806510E-006
   9.8449999999999982E-002    -6.8166620462137598E-006
   9.9299999999999999E-002    -1.0877322060413661E-005
  0.10014999999999999         -1.4574718148314124E-005
  0.10099999999999998         -1.7651281090129950E-005
  0.10185000000000000         -1.9865187569740180E-005
  0.10269999999999999         -2.1005175041873668E-005
  0.10355000000000000         -2.0907033914552524E-005
  0.10439999999999999         -1.9470727187705761E-005
  0.10524999999999998         -1.6676175865486444E-005
  0.10610000000000000         -1.2594976560732689E-005
  0.10694999999999999         -7.3956644502262567E-006
  0.10779999999999998         -1.3403002698542036E-006
  0.10865000000000000          5.2290202724986797E-006
  0.10949999999999999          1.1912315355368877E-005
  0.11035000000000000          1.8280548570577626E-005
  0.11119999999999999          2.3907238478694576E-005
  0.11204999999999998          2.8399954147320910E-005
  0.11290000000000000          3.1427837030088235E-005
  0.11374999999999999          3.2743605243940362E-005
  0.11459999999999998          3.2198468477495965E-005
  0.11545000000000000          2.9751775696598995E-005
  0.11629999999999999          2.5475228132654283E-005
  0.11715000000000000          1.9552490808414227E-005
  0.11799999999999999          1.2274448967129558E-005
  0.11884999999999998          4.0282890365365739E-006
  0.11970000000000000         -4.7196379604320522E-006
  0.12054999999999999         -1.3449140926203391E-005
  0.12139999999999998         -2.1619295414095961E-005
  0.12225000000000000         -2.8709278944060462E-005
  0.12309999999999999         -3.4260175094239062E-005
  0.12395000000000000         -3.7916654540723753E-005
  0.12479999999999999         -3.9460756021998882E-005
  0.12564999999999998         -3.8832139815096421E-005
  0.12650000000000000         -3.6131997544152340E-005
  0.12734999999999999         -3.1610096623406078E-005
  0.12819999999999998         -2.5640508010797835E-005
  0.12905000000000000         -1.8681246290892997E-005
  0.12989999999999999         -1.1223320184828152E-005
  0.13074999999999998         -3.7515950843837357E-006
  0.13159999999999999          3.2960433567703972E-006
  0.13245000000000001          9.5689606353938710E-006
  0.13329999999999997          1.4817806042589256E-005
  0.13414999999999999          1.8921348273925430E-005
  0.13500000000000001          2.1888871512794414E-005
  0.13584999999999997          2.3845254644073507E-005
  0.13669999999999999          2.5021383320876291E-005
  0.13755000000000001          2.5734060519423492E-005
  0.13839999999999997          2.6342035894705265E-005
  0.13924999999999998          2.7223622480988996E-005
  0.14010000000000000          2.8722871086734544E-005
  0.14094999999999996          3.1110591067226669E-005
  0.14179999999999998          3.4536824992270742E-005
  0.14265000000000000          3.9045676695657981E-005
  0.14350000000000002          4.4559842355255404E-005
  0.14434999999999998          5.0880420201793040E-005
  0.14520000000000000          5.7729289202311420E-005
  0.14605000000000001          6.4863731507598682E-005
  0.14689999999999998          7.2114097928217640E-005
  0.14774999999999999          7.9417246954175400E-005
  0.14860000000000001          8.6953448425033562E-005
  0.14944999999999997          9.5151614594076719E-005
  0.15029999999999999          1.0474310007896922E-004
  0.15115000000000001          1.1670147976575792E-004
  0.15199999999999997          1.3222260585607276E-004
  0.15284999999999999          1.5265264206472027E-004
  0.15370000000000000          1.7944082013237445E-004
  0.15454999999999997          2.1405857287507826E-004
  0.15539999999999998          2.5786122410701286E-004
  0.15625000000000000          3.1194694971525957E-004
  0.15709999999999996          3.7749940084238999E-004
  0.15794999999999998          4.5553961543381375E-004
  0.15880000000000000          5.4714068994008054E-004
  0.15965000000000001          6.5338203103618001E-004
  0.16049999999999998          7.7563386750666196E-004
  0.16134999999999999          9.1565040446062477E-004
  0.16220000000000001          1.0752920837884213E-003
  0.16304999999999997          1.2573783719709080E-003
  0.16389999999999999          1.4646670643597860E-003
  0.16475000000000001          1.7010021049470455E-003
  0.16559999999999997          1.9702600814271182E-003
  0.16644999999999999          2.2773423697108035E-003
  0.16730000000000000          2.6269429874439349E-003
  0.16814999999999997          3.0246949031201894E-003
  0.16899999999999998          3.4764266832315220E-003
  0.16985000000000000          3.9881475981707716E-003
  0.17069999999999996          4.5667534093509835E-003
  0.17154999999999998          5.2195787859824413E-003
  0.17240000000000000          5.9526206418107578E-003
  0.17325000000000002          6.7736102495465200E-003
  0.17409999999999998          7.6890619169223424E-003
  0.17494999999999999          8.7053495294711070E-003
  0.17580000000000001          9.8295217999974753E-003
  0.17664999999999997          1.1070633225812501E-002
  0.17749999999999999          1.2438397985955293E-002
  0.17835000000000001          1.3939162073250935E-002
  0.17919999999999997          1.5580290587742181E-002
  0.18004999999999999          1.7371683951793396E-002
  0.18090000000000001          1.9325615193547654E-002
  0.18174999999999997          2.1448916619853514E-002
  0.18259999999999998          2.3750138566010322E-002
  0.18345000000000000          2.6237105881487904E-002
  0.18429999999999996          2.8915997020156806E-002
  0.18514999999999998          3.1792673638763327E-002
  0.18600000000000000          3.4870234266034174E-002
  0.18684999999999996          3.8153594349865608E-002
  0.18769999999999998          4.1638029095542747E-002
  0.18855000000000000          4.5311612938685318E-002
  0.18940000000000001          4.9173245710721930E-002
  0.19024999999999997          5.3210117335121293E-002
  0.19109999999999999          5.7408588712231270E-002
  0.19195000000000001          6.1743212431227268E-002
  0.19279999999999997          6.6183197115000050E-002
  0.19364999999999999          7.0699440649679327E-002
  0.19450000000000001          7.5268916589837503E-002
  0.19534999999999997          7.9856951585320315E-002
  0.19619999999999999          8.4407461831083858E-002
  0.19705000000000000          8.8861660711271634E-002
  0.19789999999999996          9.3148083963644449E-002
  0.19874999999999998          9.7221498522050587E-002
  0.19960000000000000         0.10102189495562736
  0.20044999999999996         0.10445307908661254
  0.20129999999999998         0.10741334997687098
  0.20215000000000000         0.10981472706408600
  0.20300000000000001         0.11156136248819745
  0.20384999999999998         0.11256217926851435
  0.20469999999999999         0.11267466086921013
  0.20555000000000001         0.11178749720560638
  0.20639999999999997         0.10976258708258230
  0.20724999999999999         0.10649940969698332
  0.20810000000000001         0.10186631658108747
  0.20894999999999997          9.5739467051871169E-002
  0.20979999999999999          8.8000945851074708E-002
  0.21065000000000000          7.8551586538307475E-002
  0.21149999999999997          6.7280506279754737E-002
  0.21234999999999998          5.4094334510856698E-002
  0.21320000000000000          3.8895829110171379E-002
  0.21404999999999996          2.1644431759784602E-002
  0.21489999999999998          2.2839663794794116E-003
  0.21575000000000000         -1.9231343911346233E-002
  0.21659999999999996         -4.2885761769661246E-002
  0.21744999999999998         -6.8651623633616821E-002
  0.21829999999999999         -9.6467133522832677E-002
  0.21915000000000001        -0.12628658422878100
  0.21999999999999997        -0.15798454143194607
  0.22084999999999999        -0.19142093172650698
  0.22170000000000001        -0.22641700641483808
  0.22254999999999997        -0.26274069616408557
  0.22339999999999999        -0.30014015509006586
  0.22425000000000000        -0.33842385496022442
  0.22509999999999997        -0.37728753558747030
  0.22594999999999998        -0.41625816700051310
  0.22680000000000000        -0.45490638465287941
  0.22764999999999996        -0.49284243613981199
  0.22849999999999998        -0.52967310967703662
  0.22935000000000000        -0.56493297942101861
  0.23019999999999996        -0.59814163471082626
  0.23104999999999998        -0.62879468043447495
  0.23190000000000000        -0.65637442456659523
  0.23275000000000001        -0.68036033249171224
  0.23359999999999997        -0.70022969892367259
  0.23444999999999999        -0.71553224189661790
  0.23530000000000001        -0.72581184501817431
  0.23614999999999997        -0.73057509884468375
  0.23699999999999999        -0.72932549013594694
  0.23785000000000001        -0.72176805285963153
  0.23869999999999997        -0.70766580004016677
  0.23954999999999999        -0.68673908799115924
  0.24040000000000000        -0.65870979248950323
  0.24124999999999996        -0.62346326869292745
  0.24209999999999998        -0.58102487560714544
  0.24295000000000000        -0.53143958925108825
  0.24379999999999996        -0.47475110087367978
  0.24464999999999998        -0.41108940187177395
  0.24550000000000000        -0.34077164751313205
  0.24634999999999996        -0.26420379940929972
  0.24719999999999998        -0.18184976734348879
  0.24804999999999999         -9.4214066558802267E-002
  0.24890000000000001         -1.9134747717763356E-003
  0.24974999999999997          9.4350062206072643E-002
  0.25059999999999999         0.19379222736688617
  0.25145000000000001         0.29557582474444466
  0.25229999999999997         0.39874296865682690
  0.25314999999999999         0.50232244449298613
  0.25400000000000000         0.60537747899040606
  0.25484999999999997         0.70704961586804105
  0.25569999999999998         0.80626141895468484
  0.25655000000000000         0.90185319754450843
  0.25739999999999996         0.99280316175573835
  0.25824999999999998          1.0782665757696588
  0.25910000000000000          1.1573221147236135
  0.25994999999999996          1.2289686998048039
  0.26079999999999998          1.2922247380916749
  0.26164999999999999          1.3464040264871695
  0.26249999999999996          1.3909680940522551
  0.26334999999999997          1.4252964256843637
  0.26419999999999999          1.4488138904012218
  0.26505000000000001          1.4609752691448230
  0.26589999999999997          1.4617363162298220
  0.26674999999999999          1.4510298715639220
  0.26760000000000000          1.4287901309167141
  0.26844999999999997          1.3949532568940748
  0.26929999999999998          1.3496453973137421
  0.27015000000000000          1.2934144247298411
  0.27099999999999996          1.2268369562939438
  0.27184999999999998          1.1503595404096520
  0.27270000000000000          1.0645219413802249
  0.27354999999999996         0.97008626315807378
  0.27439999999999998         0.86809442169705431
  0.27524999999999999         0.75956419905633787
  0.27609999999999996         0.64545058182862824
  0.27694999999999997         0.52667978949673300
  0.27779999999999999         0.40442498905966034
  0.27865000000000001         0.27987193050025877
  0.27949999999999997         0.15421455205149970
  0.28034999999999999          2.8530612167519065E-002
  0.28120000000000001         -9.6105594728062821E-002
  0.28204999999999997        -0.21858528162510307
  0.28289999999999998        -0.33779170945982384
  0.28375000000000000        -0.45255018282523501
  0.28459999999999996        -0.56191326827492727
  0.28544999999999998        -0.66503478104708758
  0.28630000000000000        -0.76117979907158539
  0.28714999999999996        -0.84966804313372235
  0.28799999999999998        -0.92983128060255582
  0.28885000000000000         -1.0010974407728164
  0.28969999999999996         -1.0630726580886627
  0.29054999999999997         -1.1154790095518909
  0.29139999999999999         -1.1581055771081676
  0.29224999999999995         -1.1907866913649465
  0.29309999999999997         -1.2134420561417729
  0.29394999999999999         -1.2262014778338595
  0.29480000000000001         -1.2293090417195733
  0.29564999999999997         -1.2231003447488842
  0.29649999999999999         -1.2079540584522954
  0.29735000000000000         -1.1843036447605590
  0.29819999999999997         -1.1526776059937867
  0.29904999999999998         -1.1136989334394434
  0.29990000000000000         -1.0680187175861724
  0.30074999999999996         -1.0162527847491525
  0.30159999999999998        -0.95902139983313528
  0.30245000000000000        -0.89703258013149312
  0.30329999999999996        -0.83111629692030342
  0.30414999999999998        -0.76211380031750897
  0.30499999999999999        -0.69077847599084297
  0.30584999999999996        -0.61776288114993516
  0.30669999999999997        -0.54378048762953113
  0.30754999999999999        -0.46959742427723095
  0.30840000000000001        -0.39592427400290697
  0.30924999999999997        -0.32333910913162206
  0.31009999999999999        -0.25235878767759601
  0.31095000000000000        -0.18349625765608402
  0.31179999999999997        -0.11723310604828929
  0.31264999999999998         -5.4004177575573742E-002
  0.31350000000000000          5.8192230634909123E-003
  0.31434999999999996          6.1883645604150092E-002
  0.31519999999999998         0.11393331014486190
  0.31605000000000000         0.16183784071985924
  0.31689999999999996         0.20545997954583925
  0.31774999999999998         0.24459552349156261
  0.31859999999999999         0.27916034387682537
  0.31944999999999996         0.30929292204291814
  0.32029999999999997         0.33515710102259344
  0.32114999999999999         0.35673886390239729
  0.32199999999999995         0.37398100304663945
  0.32284999999999997         0.38707674183134116
  0.32369999999999999         0.39645767905217311
  0.32455000000000001         0.40239690351739421
  0.32539999999999997         0.40490301348646340
  0.32624999999999998         0.40406177500070312
  0.32710000000000000         0.40029406802616663
  0.32794999999999996         0.39408341751504938
  0.32879999999999998         0.38564429968782654
  0.32965000000000000         0.37503456840776245
  0.33049999999999996         0.36249990143407812
  0.33134999999999998         0.34849564428255658
  0.33220000000000000         0.33336830207861529
  0.33304999999999996         0.31722463201545958
  0.33389999999999997         0.30017707831305351
  0.33474999999999999         0.28251418992756866
  0.33559999999999995         0.26454438695835147
  0.33644999999999997         0.24644290113047837
  0.33729999999999999         0.22829343744143582
  0.33815000000000001         0.21024800443940039
  0.33899999999999997         0.19251800501018337
  0.33984999999999999         0.17528185976989941
  0.34070000000000000         0.15862093512514774
  0.34154999999999996         0.14254695579696228
  0.34239999999999998         0.12708133028890620
  0.34325000000000000         0.11232658732794938
  0.34409999999999996          9.8408306975987972E-002
  0.34494999999999998          8.5354108440670151E-002
  0.34580000000000000          7.3074187332229076E-002
  0.34664999999999996          6.1507623460722055E-002
  0.34749999999999998          5.0752148520707203E-002
  0.34834999999999999          4.0940100222748854E-002
  0.34919999999999995          3.2054007299260910E-002
  0.35004999999999997          2.3934725209169588E-002
  0.35089999999999999          1.6469119548088190E-002
  0.35174999999999995          9.6971272341434198E-003
  0.35259999999999997          3.6878486717381743E-003
  0.35344999999999999         -1.6072121496451270E-003
  0.35430000000000000         -6.2917528289463754E-003
  0.35514999999999997         -1.0422925179787349E-002