 -0.12000000000000000          0.0000000000000000
 -0.11914999999999999          0.0000000000000000
 -0.11830000000000000          0.0000000000000000
 -0.11745000000000000         -1.8070338773536661E-015
 -0.11660000000000000         -1.2178069664038525E-014
 -0.11574999999999999         -3.8589788918446622E-014
 -0.11490000000000000         -6.7112935786090299E-014
 -0.11405000000000000         -2.6400294103534400E-014
 -0.11320000000000000          2.2893406641122188E-013
 -0.11234999999999999          8.5750365969042776E-013
 -0.11150000000000000          1.8463462471093482E-012
 -0.11065000000000000          2.7286770786132598E-012
 -0.10979999999999999          2.3579641116337255E-012
 -0.10894999999999999         -9.8598339403544269E-013
 -0.10810000000000000         -8.8704612892660170E-012
 -0.10725000000000000         -2.1274058311678454E-011
 -0.10639999999999999         -3.4792895634113770E-011
 -0.10554999999999999         -4.1402593372414178E-011
 -0.10470000000000000         -2.9091782625403377E-011
 -0.10385000000000000          1.4445936640045593E-011
 -0.10299999999999999          9.4819170967522467E-011
 -0.10214999999999999          2.0214012920994514E-010
 -0.10130000000000000          3.0395397631750443E-010
 -0.10045000000000000          3.4483356045173763E-010
  -9.9599999999999994E-002     2.5723387633319553E-010
  -9.8750000000000004E-002    -1.4669798874259919E-011
  -9.7900000000000001E-002    -4.8172707651858185E-010
  -9.7049999999999997E-002    -1.0770751938657666E-009
  -9.6199999999999994E-002    -1.6388070237996616E-009
  -9.5349999999999990E-002    -1.9235550822567405E-009
  -9.4500000000000001E-002    -1.6606038117372138E-009
  -9.3649999999999997E-002    -6.4356411629478295E-010
  -9.2799999999999994E-002     1.1599594608902464E-009
  -9.1950000000000004E-002     3.5155242162049235E-009
  -9.1100000000000000E-002     5.8878280251798023E-009
  -9.0249999999999997E-002     7.5010011116979642E-009
  -8.9399999999999993E-002     7.5064192913684373E-009
  -8.8549999999999990E-002     5.2367874975590522E-009
  -8.7700000000000000E-002     4.8782775900183817E-010
  -8.6849999999999997E-002    -6.2585474610894634E-009
  -8.5999999999999993E-002    -1.3760561619575324E-008
  -8.5150000000000003E-002    -2.0158293520821638E-008
  -8.4300000000000000E-002    -2.3343112977506569E-008
  -8.3449999999999996E-002    -2.1497104674195501E-008
  -8.2600000000000007E-002    -1.3678509438250524E-008
  -8.1749999999999989E-002    -2.8913184512791279E-010
  -8.0900000000000000E-002     1.6735977008324184E-008
  -8.0049999999999996E-002     3.4121841251977676E-008
  -7.9199999999999993E-002     4.7840300536487640E-008
  -7.8350000000000003E-002     5.3989087056098667E-008
  -7.7499999999999999E-002     4.9766764099803473E-008
  -7.6649999999999996E-002     3.4298114815144728E-008
  -7.5800000000000006E-002     9.0815020284816763E-009
  -7.4949999999999989E-002    -2.2088018174532626E-008
  -7.4099999999999999E-002    -5.3737831385121618E-008
  -7.3249999999999996E-002    -7.9758480921613443E-008
  -7.2399999999999992E-002    -9.4635535497418042E-008
  -7.1550000000000002E-002    -9.4592614887401976E-008
  -7.0699999999999999E-002    -7.8389830031963087E-008
  -6.9849999999999995E-002    -4.7611105636920111E-008
  -6.9000000000000006E-002    -6.4007077495954599E-009
  -6.8149999999999988E-002     3.9264135462558704E-008
  -6.7299999999999999E-002     8.2585780284924114E-008
  -6.6449999999999995E-002     1.1702880497671116E-007
  -6.5599999999999992E-002     1.3727854554886744E-007
  -6.4750000000000002E-002     1.3994311645582072E-007
  -6.3899999999999998E-002     1.2394213580477998E-007
  -6.3049999999999995E-002     9.0588840492503198E-008
  -6.2199999999999998E-002     4.3407512186383820E-008
  -6.1350000000000002E-002    -1.2265113521638409E-008
  -6.0499999999999998E-002    -6.9855950849058273E-008
  -5.9650000000000002E-002    -1.2227830648153299E-007
  -5.8799999999999998E-002    -1.6276138230977757E-007
  -5.7950000000000002E-002    -1.8571718588468629E-007
  -5.7099999999999998E-002    -1.8753705399496937E-007
  -5.6249999999999994E-002    -1.6718152141234917E-007
  -5.5400000000000005E-002    -1.2643123520959016E-007
  -5.4550000000000001E-002    -6.9712695194190696E-008
  -5.3699999999999998E-002    -3.4971062457947823E-009
  -5.2849999999999994E-002     6.4630030335838062E-008
  -5.2000000000000005E-002     1.2704726344930141E-007
  -5.1150000000000001E-002     1.7710519092684214E-007
  -5.0299999999999997E-002     2.0987062503626209E-007
  -4.9449999999999994E-002     2.2249492509367480E-007
  -4.8600000000000004E-002     2.1420623046031735E-007
  -4.7750000000000001E-002     1.8602933591307346E-007
  -4.6899999999999997E-002     1.4039667126746654E-007
  -4.6049999999999994E-002     8.0808998758590490E-008
  -4.5200000000000004E-002     1.1639089711986641E-008
  -4.4350000000000001E-002    -6.1928902363629061E-008
  -4.3499999999999997E-002    -1.3392606202273912E-007
  -4.2649999999999993E-002    -1.9774249215171065E-007
  -4.1800000000000004E-002    -2.4652236508118542E-007
  -4.0950000000000000E-002    -2.7386592954104918E-007
  -4.0099999999999997E-002    -2.7477486720169754E-007
  -3.9249999999999993E-002    -2.4666791448480151E-007
  -3.8400000000000004E-002    -1.9022472398412576E-007
  -3.7550000000000000E-002    -1.0982095984914979E-007
  -3.6699999999999997E-002    -1.3388915018612356E-008
  -3.5850000000000007E-002     8.8340817619438776E-008
  -3.5000000000000003E-002     1.8312870382058258E-007
  -3.4150000000000000E-002     2.5885341085215035E-007
  -3.3299999999999996E-002     3.0522397100190686E-007
  -3.2450000000000007E-002     3.1532039573141438E-007
  -3.1600000000000003E-002     2.8674233268785013E-007
  -3.0750000000000000E-002     2.2220058470505156E-007
  -2.9899999999999996E-002     1.2945082950460424E-007
  -2.9050000000000006E-002     2.0527624754643884E-008
  -2.8200000000000003E-002    -8.9693994092080145E-008
  -2.7349999999999999E-002    -1.8549886974163109E-007
  -2.6499999999999996E-002    -2.5267788654544535E-007
  -2.5650000000000006E-002    -2.8089190033768126E-007
  -2.4800000000000003E-002    -2.6563764730352730E-007
  -2.3949999999999999E-002    -2.0938028252288646E-007
  -2.3099999999999996E-002    -1.2150068925582905E-007
  -2.2250000000000006E-002    -1.6908732060626201E-008
  -2.1400000000000002E-002     8.6539538024977451E-008
  -2.0549999999999999E-002     1.7137146893778663E-007
  -1.9699999999999995E-002     2.2388379592592434E-007
  -1.8850000000000006E-002     2.3680861680408178E-007
  -1.8000000000000002E-002     2.1060060825896974E-007
  -1.7149999999999999E-002     1.5300064733342083E-007
  -1.6299999999999995E-002     7.6964302783670433E-008
  -1.5450000000000005E-002    -2.5182573770199390E-009
  -1.4600000000000002E-002    -7.1878899582525266E-008
  -1.3749999999999998E-002    -1.2179556973163483E-007
  -1.2899999999999995E-002    -1.4866220095576900E-007
  -1.2050000000000005E-002    -1.5438859047713799E-007
  -1.1200000000000002E-002    -1.4471304721963460E-007
  -1.0349999999999998E-002    -1.2664890232836590E-007
  -9.5000000000000084E-003    -1.0593156749270303E-007
  -8.6500000000000049E-003    -8.5301657282499826E-008
  -7.8000000000000014E-003    -6.4170093185470468E-008
  -6.9499999999999978E-003    -3.9728264950238567E-008
  -6.1000000000000082E-003    -9.0751750215352102E-009
  -5.2500000000000047E-003     2.8429048504549837E-008
  -4.4000000000000011E-003     6.9480520763064352E-008
  -3.5499999999999976E-003     1.0653255885407203E-007
  -2.7000000000000079E-003     1.2915634061940437E-007
  -1.8500000000000044E-003     1.2681956041164717E-007
  -1.0000000000000009E-003     9.2352330174528582E-008
  -1.4999999999999736E-004     2.5048421152097331E-008
   6.9999999999999230E-004    -6.7592683187662614E-008
   1.5499999999999958E-003    -1.7016773051558813E-007
   2.3999999999999994E-003    -2.6188834855841030E-007
   3.2500000000000029E-003    -3.2087600126734864E-007
   4.0999999999999925E-003    -3.2923796189282568E-007
   4.9499999999999961E-003    -2.7770150241148723E-007
   5.7999999999999996E-003    -1.6862179392109648E-007
   6.6499999999999893E-003    -1.6418383271928223E-008
   7.5000000000000067E-003     1.5481113433981324E-007
   8.3499999999999963E-003     3.1615139917046689E-007
   9.1999999999999860E-003     4.4016413543981027E-007
   1.0050000000000003E-002     5.0724508768518757E-007
   1.0899999999999993E-002     5.1058470620263954E-007
   1.1750000000000010E-002     4.5846827697714297E-007
   1.2600000000000000E-002     3.7333251777797625E-007
   1.3449999999999990E-002     2.8772643326178175E-007
   1.4300000000000007E-002     2.3805404409479638E-007
   1.5149999999999997E-002     2.5757932122811712E-007
   1.5999999999999986E-002     3.7051043361333246E-007
   1.6850000000000004E-002     5.8850239684865858E-007
   1.7699999999999994E-002     9.1044282342791661E-007
   1.8549999999999983E-002     1.3257027410670807E-006
   1.9400000000000001E-002     1.8199207668964940E-006
   2.0249999999999990E-002     2.3815573291463867E-006
   2.1100000000000008E-002     3.0075630151301619E-006
   2.1949999999999997E-002     3.7069773014127557E-006
   2.2799999999999987E-002     4.5015398251419957E-006
   2.3650000000000004E-002     5.4229913523912957E-006
   2.4499999999999994E-002     6.5089847134513921E-006
   2.5349999999999984E-002     7.7989165886830631E-006
   2.6200000000000001E-002     9.3310740046825540E-006
   2.7049999999999991E-002     1.1142294395640713E-005
   2.7900000000000008E-002     1.3270416306765878E-005
   2.8749999999999998E-002     1.5758425736660177E-005
   2.9599999999999987E-002     1.8659025540952181E-005
   3.0450000000000005E-002     2.2038438146783549E-005
   3.1299999999999994E-002     2.5977117792339121E-005
   3.2149999999999984E-002     3.0567658220261533E-005
   3.3000000000000002E-002     3.5910098888977864E-005
   3.3849999999999991E-002     4.2105721089564366E-005
   3.4700000000000009E-002     4.9253104152988064E-005
   3.5549999999999998E-002     5.7445839010537386E-005
   3.6399999999999988E-002     6.6774697050333260E-005
   3.7250000000000005E-002     7.7333752649719201E-005
   3.8099999999999995E-002     8.9226043068893872E-005
   3.8949999999999985E-002     1.0257045919572784E-004
   3.9800000000000002E-002     1.1750693019159111E-004
   4.0649999999999992E-002     1.3419605283987280E-004
   4.1500000000000009E-002     1.5281724520965331E-004
   4.2349999999999999E-002     1.7356190747034320E-004
   4.3199999999999988E-002     1.9662813886677890E-004
   4.4050000000000006E-002     2.2221760597761065E-004
   4.4899999999999995E-002     2.5053188597082049E-004
   4.5749999999999985E-002     2.8177227726417355E-004
   4.6600000000000003E-002     3.1614453077686937E-004
   4.7449999999999992E-002     3.5385881369056726E-004
   4.8299999999999982E-002     3.9512944025034646E-004
   4.9149999999999999E-002     4.4017166702251030E-004
   4.9999999999999989E-002     4.8919573778318523E-004
   5.0850000000000006E-002     5.4239878860004283E-004
   5.1699999999999996E-002     5.9995321461846338E-004
   5.2549999999999986E-002     6.6200004704412081E-004
   5.3400000000000003E-002     7.2864289329320454E-004
   5.4249999999999993E-002     7.9995220867769908E-004
   5.5099999999999982E-002     8.7597101288543525E-004
   5.5950000000000000E-002     9.5671450764234873E-004
   5.6799999999999989E-002     1.0421662147297914E-003
   5.7650000000000007E-002     1.1322776931134899E-003
   5.8499999999999996E-002     1.2269560720357614E-003
   5.9349999999999986E-002     1.3260555752279298E-003
   6.0200000000000004E-002     1.4293548441118452E-003
   6.1049999999999993E-002     1.5365447724699209E-003
   6.1899999999999983E-002     1.6472190026001832E-003
   6.2750000000000000E-002     1.7608726453180188E-003
   6.3599999999999990E-002     1.8768977218067790E-003
   6.4450000000000007E-002     1.9945878996219472E-003
   6.5299999999999997E-002     2.1131381394601067E-003
   6.6149999999999987E-002     2.2316517854182971E-003
   6.7000000000000004E-002     2.3491415331610005E-003
   6.7849999999999994E-002     2.4645229971618750E-003
   6.8699999999999983E-002     2.5766171984065072E-003
   6.9550000000000001E-002     2.6841305675183690E-003
   7.0399999999999990E-002     2.7856590338967303E-003
   7.1249999999999980E-002     2.8797008149151265E-003
   7.2099999999999997E-002     2.9646499956103405E-003
   7.2949999999999987E-002     3.0388187797517879E-003
   7.3800000000000004E-002     3.1004524257191180E-003
   7.4649999999999994E-002     3.1477339873602103E-003
   7.5499999999999984E-002     3.1788213943222919E-003
   7.6350000000000001E-002     3.1918500674686587E-003
   7.7199999999999991E-002     3.1849328876217367E-003
   7.8049999999999981E-002     3.1561891720667899E-003
   7.8899999999999998E-002     3.1037325551398248E-003
   7.9749999999999988E-002     3.0257113410872378E-003
   8.0600000000000005E-002     2.9203412980110524E-003
   8.1449999999999995E-002     2.7859309760117404E-003
   8.2299999999999984E-002     2.6209137756062722E-003
   8.3150000000000002E-002     2.4239011594187287E-003
   8.3999999999999991E-002     2.1937230142368789E-003
   8.4849999999999981E-002     1.9294564450404211E-003
   8.5699999999999998E-002     1.6304428523295565E-003
   8.6549999999999988E-002     1.2962983365482404E-003
   8.7400000000000005E-002     9.2693636490652574E-004
   8.8249999999999995E-002     5.2256671251330522E-004
   8.9099999999999985E-002     8.3710823765581000E-005
   8.9950000000000002E-002    -3.8876531192592715E-004
   9.0799999999999992E-002    -8.9362922368854453E-004
   9.1649999999999981E-002    -1.4292640873102640E-003
   9.2499999999999999E-002    -1.9936614355774967E-003
   9.3349999999999989E-002    -2.5844061565770161E-003
   9.4200000000000006E-002    -3.1986512412568524E-003
   9.5049999999999996E-002    -3.8331455311728644E-003
   9.5899999999999985E-002    -4.4842031154048827E-003
   9.6750000000000003E-002    -5.1477573797819162E-003
   9.7599999999999992E-002    -5.8193956674376969E-003
   9.8449999999999982E-002    -6.4943931396459174E-003
   9.9299999999999999E-002    -7.1677749031010003E-003
  0.10014999999999999         -7.8342671581460455E-003
  0.10099999999999998         -8.4883612993491425E-003
  0.10185000000000000         -9.1243772212135209E-003
  0.10269999999999999         -9.7364466190753944E-003
  0.10355000000000000         -1.0318604240516520E-002
  0.10439999999999999         -1.0864853521035948E-002
  0.10524999999999998         -1.1369264787294848E-002
  0.10610000000000000         -1.1825998935355762E-002
  0.10694999999999999         -1.2229357400011191E-002
  0.10779999999999998         -1.2573895643798006E-002
  0.10865000000000000         -1.2854515297460439E-002
  0.10949999999999999         -1.3066483967761593E-002
  0.11035000000000000         -1.3205487031641872E-002
  0.11119999999999999         -1.3267705197642641E-002
  0.11204999999999998         -1.3249856064790184E-002
  0.11290000000000000         -1.3149222022477924E-002
  0.11374999999999999         -1.2963685313318762E-002
  0.11459999999999998         -1.2691777104693448E-002
  0.11545000000000000         -1.2332729507396585E-002
  0.11629999999999999         -1.1886566620573927E-002
  0.11715000000000000         -1.1354079136996188E-002
  0.11799999999999999         -1.0736866666904016E-002
  0.11884999999999998         -1.0037324735396603E-002
  0.11970000000000000         -9.2586125222660423E-003
  0.12054999999999999         -8.4046572808908569E-003
  0.12139999999999998         -7.4801371912453229E-003
  0.12225000000000000         -6.4904435706552820E-003
  0.12309999999999999         -5.4415986849633089E-003
  0.12395000000000000         -4.3402384538326544E-003
  0.12479999999999999         -3.1935751341749981E-003
  0.12564999999999998         -2.0093348604523250E-003
  0.12650000000000000         -7.9572896212136771E-004
  0.12734999999999999          4.3867250411969670E-004
  0.12819999999999998          1.6850200819426269E-003
  0.12905000000000000          2.9342155521022649E-003
  0.12989999999999999          4.1770777357168602E-003
  0.13074999999999998          5.4043942437417367E-003
  0.13159999999999999          6.6070551124160840E-003
  0.13245000000000001          7.7761480554905116E-003
  0.13329999999999997          8.9030104602390130E-003
  0.13414999999999999          9.9793198896467178E-003
  0.13500000000000001          1.0997119466538766E-002
  0.13584999999999997          1.1948916542366340E-002
  0.13669999999999999          1.2827823912216605E-002
  0.13755000000000001          1.3627545037419534E-002
  0.13839999999999997          1.4342420994560807E-002
  0.13924999999999998          1.4967604983624080E-002
  0.14010000000000000          1.5498998727042104E-002
  0.14094999999999996          1.5933313336756013E-002
  0.14179999999999998          1.6268149258845638E-002
  0.14265000000000000          1.6501970594189026E-002
  0.14350000000000002          1.6634145552529858E-002
  0.14434999999999998          1.6664915932535246E-002
  0.14520000000000000          1.6595377341728199E-002
  0.14605000000000001          1.6427472972781836E-002
  0.14689999999999998          1.6163931091578817E-002
  0.14774999999999999          1.5808161278903183E-002
  0.14860000000000001          1.5364331395785986E-002
  0.14944999999999997          1.4837297639546134E-002
  0.15029999999999999          1.4232509386281511E-002
  0.15115000000000001          1.3555957954872968E-002
  0.15199999999999997          1.2814151820309490E-002
  0.15284999999999999          1.2014009950360378E-002
  0.15370000000000000          1.1162742559758174E-002
  0.15454999999999997          1.0267872332220403E-002
  0.15539999999999998          9.3370674459184264E-003
  0.15625000000000000          8.3780662397396188E-003
  0.15709999999999996          7.3986470560032467E-003
  0.15794999999999998          6.4065010157615624E-003
  0.15880000000000000          5.4091898724692271E-003
  0.15965000000000001          4.4140943183657117E-003
  0.16049999999999998          3.4283219144618090E-003
  0.16134999999999999          2.4586810598858809E-003
  0.16220000000000001          1.5116039043460011E-003
  0.16304999999999997          5.9310946063637808E-004
  0.16389999999999999         -2.9130224803166488E-004
  0.16475000000000001         -1.1366325897638394E-003
  0.16559999999999997         -1.9384076347691431E-003
  0.16644999999999999         -2.6927621209828717E-003
  0.16730000000000000         -3.3963761023482683E-003
  0.16814999999999997         -4.0464934555144161E-003
  0.16899999999999998         -4.6408945736611928E-003
  0.16985000000000000         -5.1779233387087677E-003
  0.17069999999999996         -5.6565072087919367E-003
  0.17154999999999998         -6.0760688722777409E-003
  0.17240000000000000         -6.4365608427898961E-003
  0.17325000000000002         -6.7384579516764744E-003
  0.17409999999999998         -6.9827207788203914E-003
  0.17494999999999999         -7.1707788675222997E-003
  0.17580000000000001         -7.3044618465699582E-003
  0.17664999999999997         -7.3859651499578911E-003
  0.17749999999999999         -7.4178074183478254E-003
  0.17835000000000001         -7.4027887662367377E-003
  0.17919999999999997         -7.3439291235788684E-003
  0.18004999999999999         -7.2443983264371906E-003
  0.18090000000000001         -7.1075056585145450E-003
  0.18174999999999997         -6.9366785736685527E-003
  0.18259999999999998         -6.7354062882128115E-003
  0.18345000000000000         -6.5072030328412328E-003
  0.18429999999999996         -6.2556015876771643E-003
  0.18514999999999998         -5.9841056413442208E-003
  0.18600000000000000         -5.6961445501392061E-003
  0.18684999999999996         -5.3950459979762383E-003
  0.18769999999999998         -5.0840052629151358E-003
  0.18855000000000000         -4.7660455614251208E-003
  0.18940000000000001         -4.4440204226560507E-003
  0.19024999999999997         -4.1205824074638511E-003
  0.19109999999999999         -3.7981828363850643E-003
  0.19195000000000001         -3.4790802941578381E-003
  0.19279999999999997         -3.1653266418614247E-003
  0.19364999999999999         -2.8587795828004013E-003
  0.19450000000000001         -2.5611140295295578E-003
  0.19534999999999997         -2.2738049806148315E-003
  0.19619999999999999         -1.9981182391414372E-003
  0.19705000000000000         -1.7351211254484833E-003
  0.19789999999999996         -1.4856712542314905E-003
  0.19874999999999998         -1.2504155509741519E-003
  0.19960000000000000         -1.0298148493942927E-003
  0.20044999999999996         -8.2415013718605793E-004
  0.20129999999999998         -6.3354102991575525E-004
  0.20215000000000000         -4.5796882351483434E-004
  0.20300000000000001         -2.9729216964417262E-004
  0.20384999999999998         -1.5126733670305938E-004
  0.20469999999999999         -1.9561909623178183E-005
  0.20555000000000001          9.8234405916885589E-005
  0.20639999999999997          2.0260689059215680E-004
  0.20724999999999999          2.9410487828974589E-004
  0.20810000000000001          3.7334262693172109E-004
  0.20894999999999997          4.4098914642211405E-004
  0.20979999999999999          4.9776286425127201E-004
  0.21065000000000000          5.4440988493071143E-004
  0.21149999999999997          5.8168846042673875E-004
  0.21234999999999998          6.1035868434430765E-004
  0.21320000000000000          6.3116486422401573E-004
  0.21404999999999996          6.4482779272211511E-004
  0.21489999999999998          6.5204871239470347E-004
  0.21575000000000000          6.5351288735588970E-004
  0.21659999999999996          6.4989052522021072E-004
  0.21744999999999998          6.4184403282963585E-004
  0.21829999999999999          6.3002576114686959E-004
  0.21915000000000001          6.1507357017958827E-004
  0.21999999999999997          5.9760111536817564E-004
  0.22084999999999999          5.7818167716944973E-004
  0.22170000000000001          5.5733550414058209E-004
  0.22254999999999997          5.3551765260031385E-004
  0.22339999999999999          5.1309940451379902E-004
  0.22425000000000000          4.9038224735645621E-004
  0.22509999999999997          4.6761012872006654E-004
  0.22594999999999998          4.4498057586782726E-004
  0.22680000000000000          4.2266472290734337E-004
  0.22764999999999996          4.0081327404613737E-004
  0.22849999999999998          3.7957360672452058E-004
  0.22935000000000000          3.5909306182406930E-004
  0.23019999999999996          3.3950779332713170E-004
  0.23104999999999998          3.2093457303813353E-004
  0.23190000000000000          3.0345870210859288E-004
  0.23275000000000001          2.8712406973608202E-004
  0.23359999999999997          2.7192600784778977E-004
  0.23444999999999999          2.5781577333126729E-004
  0.23530000000000001          2.4470885357766407E-004
  0.23614999999999997          2.3249377678608273E-004
  0.23699999999999999          2.2104957362025456E-004
  0.23785000000000001          2.1026425570832077E-004
  0.23869999999999997          2.0004801936341130E-004
  0.23954999999999999          1.9033852823501993E-004
  0.24040000000000000          1.8110176346360624E-004
  0.24124999999999996          1.7232363451156761E-004
  0.24209999999999998          1.6400098877116572E-004
  0.24295000000000000          1.5613496706850735E-004
  0.24379999999999996          1.4871593349045361E-004
  0.24464999999999998          1.4171926816825461E-004
  0.24550000000000000          1.3510752615694473E-004
  0.24634999999999996          1.2883569136761940E-004
  0.24719999999999998          1.2285789567048849E-004
  0.24804999999999999          1.1713851847703984E-004
  0.24890000000000001          1.1166232795644163E-004
  0.24974999999999997          1.0643511628159277E-004
  0.25059999999999999          1.0148111722902301E-004
  0.25145000000000001          9.6839170850057313E-005
  0.25229999999999997          9.2549961973345258E-005
  0.25314999999999999          8.8643889931463413E-005
  0.25400000000000000          8.5135415530601441E-005
  0.25484999999999997          8.2016749469763007E-005
  0.25569999999999998          7.9258727502973247E-005
  0.25655000000000000          7.6814085383959289E-005
  0.25739999999999996          7.4624807282887263E-005
  0.25824999999999998          7.2630714127951016E-005
  0.25910000000000000          7.0773061497031569E-005
  0.25994999999999996          6.8998697014931076E-005
  0.26079999999999998          6.7260532698108826E-005
  0.26164999999999999          6.5514675826629140E-005
  0.26249999999999996          6.3715689575537157E-005
  0.26334999999999997          6.1815487550618452E-005
  0.26419999999999999          5.9763449560850681E-005
  0.26505000000000001          5.7508607488009785E-005
  0.26589999999999997          5.5005422623078853E-005
  0.26674999999999999          5.2218058278922080E-005
  0.26760000000000000          4.9122953731828588E-005
  0.26844999999999997          4.5713269322138607E-005
  0.26929999999999998          4.1996404435800892E-005
  0.27015000000000000          3.7992849034918399E-005
  0.27099999999999996          3.3734558098198582E-005
  0.27184999999999998          2.9261068621249501E-005
  0.27270000000000000          2.4621686383743706E-005
  0.27354999999999996          1.9875198769447443E-005
  0.27439999999999998          1.5091773718380389E-005
  0.27524999999999999          1.0356232451710069E-005
  0.27609999999999996          5.7659657784644101E-006
  0.27694999999999997          1.4283057051568529E-006
  0.27779999999999999         -2.5460595374058119E-006
  0.27865000000000001         -6.0528965866214903E-006
  0.27949999999999997         -9.0039634056873984E-006
  0.28034999999999999         -1.1336151878818788E-005
  0.28120000000000001         -1.3014272550593105E-005
  0.28204999999999997         -1.4029698279310737E-005
  0.28289999999999998         -1.4394098337202332E-005
  0.28375000000000000         -1.4129571107864616E-005
  0.28459999999999996         -1.3257947064338650E-005
  0.28544999999999998         -1.1793824339152163E-005
  0.28630000000000000         -9.7436705546347793E-006
  0.28714999999999996         -7.1106957584185296E-006
  0.28799999999999998         -3.9053942162800360E-006
  0.28885000000000000         -1.5915506971250597E-007
  0.28969999999999996          4.0632396882923021E-006
  0.29054999999999997          8.6583717668308879E-006
  0.29139999999999999          1.3486224698942473E-005
  0.29224999999999995          1.8380286072363369E-005
  0.29309999999999997          2.3166474331366141E-005
  0.29394999999999999          2.7683487177910222E-005
  0.29480000000000001          3.1801521133776665E-005
  0.29564999999999997          3.5433464174015594E-005
  0.29649999999999999          3.8535199921566711E-005
  0.29735000000000000          4.1097663117884147E-005
  0.29819999999999997          4.3131092727900232E-005
  0.29904999999999998          4.4646859776458225E-005
  0.29990000000000000          4.5643637487748404E-005
  0.30074999999999996          4.6102748978061937E-005
  0.30159999999999998          4.5992772215314638E-005
  0.30245000000000000          4.5283122291242908E-005
  0.30329999999999996          4.3962530270273922E-005
  0.30414999999999998          4.2055850938378398E-005
  0.30499999999999999          3.9634522098123314E-005
  0.30584999999999996          3.6815407283457860E-005
  0.30669999999999997          3.3747268240600509E-005
  0.30754999999999999          3.0589651844223788E-005
  0.30840000000000001          2.7488539451158472E-005
  0.30924999999999997          2.4554399263229001E-005
  0.31009999999999999          2.1849757644474848E-005
  0.31095000000000000          1.9389208519700384E-005
  0.31179999999999997          1.7151362295710345E-005
  0.31264999999999998          1.5097758792937908E-005
  0.31350000000000000          1.3193446043392841E-005
  0.31434999999999996          1.1423542739325217E-005
  0.31519999999999998          9.7990380871992496E-006
  0.31605000000000000          8.3523525006450037E-006
  0.31689999999999996          7.1229677542679580E-006
  0.31774999999999998          6.1384513437836020E-006
  0.31859999999999999          5.3977296935952906E-006
  0.31944999999999996          4.8603925035553966E-006
  0.32029999999999997          4.4470681767210994E-006
  0.32114999999999999          4.0505224510381036E-006
  0.32199999999999995          3.5537387229836120E-006
  0.32284999999999997          2.8509103500333394E-006
  0.32369999999999999          1.8649582603215656E-006
  0.32455000000000001          5.5702284387834509E-007
  0.32539999999999997         -1.0730557014205197E-006
  0.32624999999999998         -2.9964433777887257E-006
  0.32710000000000000         -5.1691754587248613E-006
  0.32794999999999996         -7.5458381535171073E-006
  0.32879999999999998         -1.0089196202140744E-005
  0.32965000000000000         -1.2773206713790363E-005
  0.33049999999999996         -1.5577454304869792E-005
  0.33134999999999998         -1.8476396569108248E-005
  0.33220000000000000         -2.1427091401071258E-005
  0.33304999999999996         -2.4359216408763344E-005
  0.33389999999999997         -2.7172473411018215E-005
  0.33474999999999999         -2.9741601129484100E-005
  0.33559999999999995         -3.1929079847641057E-005
  0.33644999999999997         -3.3602142529973617E-005
  0.33729999999999999         -3.4649559541764613E-005
  0.33815000000000001         -3.4993275621797746E-005
  0.33899999999999997         -3.4593692936197766E-005
  0.33984999999999999         -3.3447260533727547E-005
  0.34070000000000000         -3.1577017314142537E-005
  0.34154999999999996         -2.9020747118149604E-005
  0.34239999999999998         -2.5820824142539766E-005