 -0.12000000000000000          0.0000000000000000
 -0.11914999999999999          0.0000000000000000
 -0.11830000000000000          0.0000000000000000
 -0.11745000000000000          0.0000000000000000
 -0.11660000000000000          0.0000000000000000
 -0.11574999999999999          0.0000000000000000
 -0.11490000000000000          0.0000000000000000
 -0.11405000000000000          0.0000000000000000
 -0.11320000000000000         -2.5806346526036996E-027
 -0.11234999999999999         -4.4980561840633828E-026
 -0.11150000000000000         -3.9115960425514604E-025
 -0.11065000000000000         -2.2456614414873529E-024
 -0.10979999999999999         -9.4695621917490633E-024
 -0.10894999999999999         -3.0733503634004756E-023
 -0.10810000000000000         -7.7391105078985335E-023
 -0.10725000000000000         -1.4419960414598186E-022
 -0.10639999999999999         -1.5314344837720261E-022
 -0.10554999999999999          1.4753517961854080E-022
 -0.10470000000000000          1.2789063115529384E-021
 -0.10385000000000000          3.9519992880943032E-021
 -0.10299999999999999          8.5078737938572313E-021
 -0.10214999999999999          1.3569700085154255E-020
 -0.10130000000000000          1.3977824042041083E-020
 -0.10045000000000000         -9.6571854919049623E-022
  -9.9599999999999994E-002    -4.6525423188737990E-020
  -9.8750000000000004E-002    -1.3538070212233923E-019
  -9.7900000000000001E-002    -2.6165270265822683E-019
  -9.7049999999999997E-002    -3.7774450488768718E-019
  -9.6199999999999994E-002    -3.7381985591233636E-019
  -9.5349999999999990E-002    -7.9490911009142520E-020
  -9.4500000000000001E-002     6.8746723439604337E-019
  -9.3649999999999997E-002     2.0083034082478556E-018
  -9.2799999999999994E-002     3.6967506192840617E-018
  -9.1950000000000004E-002     5.1347603956360194E-018
  -9.1100000000000000E-002     5.2150686533390994E-018
  -9.0249999999999997E-002     2.5176177719529931E-018
  -8.9399999999999993E-002    -4.1902534338278847E-018
  -8.8549999999999990E-002    -1.5156082937596994E-017
  -8.7700000000000000E-002    -2.8752742628031223E-017
  -8.6849999999999997E-002    -4.0883210641761913E-017
  -8.5999999999999993E-002    -4.5149193399849507E-017
  -8.5150000000000003E-002    -3.4144074098938846E-017
  -8.4300000000000000E-002    -1.8923291844157579E-018
  -8.3449999999999996E-002     5.3040107342610910E-017
  -8.2600000000000007E-002     1.2471592254948419E-016
  -8.1749999999999989E-002     1.9844564460355292E-016
  -8.0900000000000000E-002     2.5180633246465589E-016
  -8.0049999999999996E-002     2.5835527323135594E-016
  -7.9199999999999993E-002     1.9347356024596847E-016
  -7.8350000000000003E-002     4.1102078955615153E-017
  -7.7499999999999999E-002    -2.0000162647267113E-016
  -7.6649999999999996E-002    -5.1139304665218846E-016
  -7.5800000000000006E-002    -8.5167326065371601E-016
  -7.4949999999999989E-002    -1.1548176997984452E-015
  -7.4099999999999999E-002    -1.3309638296128311E-015
  -7.3249999999999996E-002    -1.2724342958831793E-015
  -7.2399999999999992E-002    -8.6963992906037365E-016
  -7.1550000000000002E-002    -4.1337031278552761E-017
  -7.0699999999999999E-002     1.2205240812521495E-015
  -6.9849999999999995E-002     2.7999528737870218E-015
  -6.9000000000000006E-002     4.4198196105664978E-015
  -6.8149999999999988E-002     5.6461865225882710E-015
  -6.7299999999999999E-002     5.9594256160097931E-015
  -6.6449999999999995E-002     4.8995191529952107E-015
  -6.5599999999999992E-002     2.2600109149241511E-015
  -6.4750000000000002E-002    -1.7329147234246029E-015
  -6.3899999999999998E-002    -6.3451247307832900E-015
  -6.3049999999999995E-002    -1.0444162653975401E-014
  -6.2199999999999998E-002    -1.2821974749719148E-014
  -6.1350000000000002E-002    -1.2666515528313569E-014
  -6.0499999999999998E-002    -1.0016344067782466E-014
  -5.9650000000000002E-002    -5.9698415990222894E-015
  -5.8799999999999998E-002    -2.4474063949119086E-015
  -5.7950000000000002E-002    -1.4456863700432247E-015
  -5.7099999999999998E-002    -3.9544174556674952E-015
  -5.6249999999999994E-002    -8.9484400820659280E-015
  -5.5400000000000005E-002    -1.3000684271975371E-014
  -5.4550000000000001E-002    -1.0974476717537963E-014
  -5.3699999999999998E-002     2.0996993557547063E-015
  -5.2849999999999994E-002     2.8405238627039042E-014
  -5.2000000000000005E-002     6.4964756491955279E-014
  -5.1150000000000001E-002     1.0276333127637937E-013
  -5.0299999999999997E-002     1.2837580612313057E-013
  -4.9449999999999994E-002     1.2826473802919514E-013
  -4.8600000000000004E-002     9.4675787730480315E-014
  -4.7750000000000001E-002     3.0873918343341208E-014
  -4.6899999999999997E-002    -4.7064068274682279E-014
  -4.6049999999999994E-002    -1.1405740765368378E-013
  -4.5200000000000004E-002    -1.4567810358509130E-013
  -4.4350000000000001E-002    -1.3115898819799699E-013
  -4.3499999999999997E-002    -8.4674526419218948E-014
  -4.2649999999999993E-002    -4.8669858271547781E-014
  -4.1800000000000004E-002    -8.4349316240121420E-014
  -4.0950000000000000E-002    -2.4850109560098724E-013
  -4.0099999999999997E-002    -5.6173322322595488E-013
  -3.9249999999999993E-002    -9.7888710552632201E-013
  -3.8400000000000004E-002    -1.3753066296790023E-012
  -3.7550000000000000E-002    -1.5606342101501780E-012
  -3.6699999999999997E-002    -1.3242608959122200E-012
  -3.5850000000000007E-002    -5.0506599728047905E-013
  -3.5000000000000003E-002     9.3362739187339764E-013
  -3.4150000000000000E-002     2.8500084230070535E-012
  -3.3299999999999996E-002     4.9151834546946515E-012
  -3.2450000000000007E-002     6.6628672062414948E-012
  -3.1600000000000003E-002     7.5909713762687794E-012
  -3.0750000000000000E-002     7.2883593136128025E-012
  -2.9899999999999996E-002     5.5468104285835533E-012
  -2.9050000000000006E-002     2.4190816919039613E-012
  -2.8200000000000003E-002    -1.7986917725073087E-012
  -2.7349999999999999E-002    -6.6528275585154300E-012
  -2.6499999999999996E-002    -1.1648138397553162E-011
  -2.5650000000000006E-002    -1.6338358143837827E-011
  -2.4800000000000003E-002    -2.0340997123911851E-011
  -2.3949999999999999E-002    -2.3259244886626153E-011
  -2.3099999999999996E-002    -2.4543921465000481E-011
  -2.2250000000000006E-002    -2.3377118829456323E-011
  -2.1400000000000002E-002    -1.8681933604142442E-011
  -2.0549999999999999E-002    -9.3404990189024865E-012
  -1.9699999999999995E-002     5.3683256407029273E-012
  -1.8850000000000006E-002     2.5202939001391994E-011
  -1.8000000000000002E-002     4.8453844502028212E-011
  -1.7149999999999999E-002     7.1737582708356908E-011
  -1.6299999999999995E-002     9.0291116538417603E-011
  -1.5450000000000005E-002     9.8837466149438465E-011
  -1.4600000000000002E-002     9.2894194702448296E-011
  -1.3749999999999998E-002     7.0193544729936700E-011
  -1.2899999999999995E-002     3.1755551654437228E-011
  -1.2050000000000005E-002    -1.7827499970771892E-011
  -1.1200000000000002E-002    -7.1146749943871949E-011
  -1.0349999999999998E-002    -1.1969667904075417E-010
  -9.5000000000000084E-003    -1.5611548426833215E-010
  -8.6500000000000049E-003    -1.7622868320894858E-010
  -7.8000000000000014E-003    -1.8012454781374481E-010
  -6.9499999999999978E-003    -1.7172128739721898E-010
  -6.1000000000000082E-003    -1.5677168492925096E-010
  -5.2500000000000047E-003    -1.3985068587005363E-010
  -4.4000000000000011E-003    -1.2137894673960364E-010
  -3.5499999999999976E-003    -9.5935870398991022E-011
  -2.7000000000000079E-003    -5.2870720199562747E-011
  -1.8500000000000044E-003     2.0459604078535633E-011
  -1.0000000000000009E-003     1.3343711124600116E-010
  -1.4999999999999736E-004     2.8642207185619128E-010
   6.9999999999999230E-004     4.6650028706698964E-010
   1.5499999999999958E-003     6.4662128046842794E-010
   2.3999999999999994E-003     7.8917071868988630E-010
   3.2500000000000029E-003     8.5366905184987893E-010
   4.0999999999999925E-003     8.0683410615114381E-010
   4.9499999999999961E-003     6.3218836903770320E-010
   5.7999999999999996E-003     3.3617259521918928E-010
   6.6499999999999893E-003    -5.1467259009855423E-011
   7.5000000000000067E-003    -4.8358028954327331E-010
   8.3499999999999963E-003    -9.0630809193158989E-010
   9.1999999999999860E-003    -1.2713528679695761E-009
   1.0050000000000003E-002    -1.5458195371277820E-009
   1.0899999999999993E-002    -1.7162263150946026E-009
   1.1750000000000010E-002    -1.7851552168025526E-009
   1.2600000000000000E-002    -1.7616391882177586E-009
   1.3449999999999990E-002    -1.6488929735068821E-009
   1.4300000000000007E-002    -1.4344417190201811E-009
   1.5149999999999997E-002    -1.0874369071828667E-009
   1.5999999999999986E-002    -5.6588656257082645E-010
   1.6850000000000004E-002     1.6683571745362475E-010
   1.7699999999999994E-002     1.1204189945254576E-009
   1.8549999999999983E-002     2.2577516174791230E-009
   1.9400000000000001E-002     3.4840953414321564E-009
   2.0249999999999990E-002     4.6507012279672309E-009
   2.1100000000000008E-002     5.5743478362186069E-009
   2.1949999999999997E-002     6.0694618720777388E-009
   2.2799999999999987E-002     5.9852989463352231E-009
   2.3650000000000004E-002     5.2385966829184485E-009
   2.4499999999999994E-002     3.8329202118667154E-009
   2.5349999999999984E-002     1.8595367634289159E-009
   2.6200000000000001E-002    -5.1994445631162334E-010
   2.7049999999999991E-002    -3.1035677935412451E-009
   2.7900000000000008E-002    -5.6824152508339941E-009
   2.8749999999999998E-002    -8.0675175264170848E-009
   2.9599999999999987E-002    -1.0103180271464948E-008
   3.0450000000000005E-002    -1.1664712571950964E-008
   3.1299999999999994E-002    -1.2644477263317009E-008
   3.2149999999999984E-002    -1.2934762667535481E-008
   3.3000000000000002E-002    -1.2417640031203629E-008
   3.3849999999999991E-002    -1.0969861050275547E-008
   3.4700000000000009E-002    -8.4857131639233020E-009
   3.5549999999999998E-002    -4.9141906850890849E-009
   3.6399999999999988E-002    -3.0079558779571425E-010
   3.7250000000000005E-002     5.1786549168354850E-009
   3.8099999999999995E-002     1.1204218211621946E-008
   3.8949999999999985E-002     1.7325259138613062E-008
   3.9800000000000002E-002     2.3001288427232547E-008
   4.0649999999999992E-002     2.7663029708983696E-008
   4.1500000000000009E-002     3.0781260465594919E-008
   4.2349999999999999E-002     3.1929251039860800E-008
   4.3199999999999988E-002     3.0827166100708917E-008
   4.4050000000000006E-002     2.7362439476027532E-008
   4.4899999999999995E-002     2.1587248731851613E-008
   4.5749999999999985E-002     1.3700179028108806E-008
   4.6600000000000003E-002     4.0224718491119193E-009
   4.7449999999999992E-002    -7.0214768479918647E-009
   4.8299999999999982E-002    -1.8913556798923319E-008
   4.9149999999999999E-002    -3.1041679163832684E-008
   4.9999999999999989E-002    -4.2696005573928156E-008
   5.0850000000000006E-002    -5.3071769286630116E-008
   5.1699999999999996E-002    -6.1289386087011007E-008
   5.2549999999999986E-002    -6.6439569001778719E-008
   5.3400000000000003E-002    -6.7655297180022504E-008
   5.4249999999999993E-002    -6.4205426881308316E-008
   5.5099999999999982E-002    -5.5598786999306553E-008
   5.5950000000000000E-002    -4.1683328953997104E-008
   5.6799999999999989E-002    -2.2723825440061170E-008
   5.7650000000000007E-002     5.5580337780990930E-010
   5.8499999999999996E-002     2.6974997007495088E-008
   5.9349999999999986E-002     5.4947308134238160E-008
   6.0200000000000004E-002     8.2576021729411392E-008
   6.1049999999999993E-002     1.0778664061331603E-007
   6.1899999999999983E-002     1.2848369732268645E-007
   6.2750000000000000E-002     1.4271788675705971E-007
   6.3599999999999990E-002     1.4884902526740404E-007
   6.4450000000000007E-002     1.4569193866095576E-007
   6.5299999999999997E-002     1.3263420459315943E-007
   6.6149999999999987E-002     1.0971844893503345E-007
   6.7000000000000004E-002     7.7683902773996312E-008
   6.7849999999999994E-002     3.7964897549379620E-008
   6.8699999999999983E-002    -7.3547801987769983E-009
   6.9550000000000001E-002    -5.5629899803292053E-008
   7.0399999999999990E-002    -1.0378208483689943E-007
   7.1249999999999980E-002    -1.4846457492696752E-007
   7.2099999999999997E-002    -1.8625560804500477E-007
   7.2949999999999987E-002    -2.1387070444335526E-007
   7.3800000000000004E-002    -2.2837758799786468E-007
   7.4649999999999994E-002    -2.2739316119066140E-007
   7.5499999999999984E-002    -2.0924330899047874E-007
   7.6350000000000001E-002    -1.7306089539498762E-007
   7.7199999999999991E-002    -1.1880357617168772E-007
   7.8049999999999981E-002    -4.7184817213419897E-008
   7.8899999999999998E-002     4.0480653518906560E-008
   7.9749999999999988E-002     1.4250333771852227E-007
   8.0600000000000005E-002     2.5709418922404629E-007
   8.1449999999999995E-002     3.8265647631047642E-007
   8.2299999999999984E-002     5.1806955365151651E-007
   8.3150000000000002E-002     6.6293136895798072E-007
   8.3999999999999991E-002     8.1774779811795800E-007
   8.4849999999999981E-002     9.8406184496463786E-007
   8.5699999999999998E-002     1.1645324936555754E-006
   8.6549999999999988E-002     1.3629776974984323E-006
   8.7400000000000005E-002     1.5843891694396499E-006
   8.8249999999999995E-002     1.8349400637108819E-006
   8.9099999999999985E-002     2.1219897019006010E-006
   8.9950000000000002E-002     2.4540792794943808E-006
   9.0799999999999992E-002     2.8409471110671846E-006
   9.1649999999999981E-002     3.2935782746463614E-006
   9.2499999999999999E-002     3.8242690188704297E-006
   9.3349999999999989E-002     4.4467460465376504E-006
   9.4200000000000006E-002     5.1763807889097586E-006
   9.5049999999999996E-002     6.0304918969060046E-006
   9.5899999999999985E-002     7.0286471985113583E-006
   9.6750000000000003E-002     8.1930823547642174E-006
   9.7599999999999992E-002     9.5491642332135558E-006
   9.8449999999999982E-002     1.1125837001950286E-005
   9.9299999999999999E-002     1.2956056256214232E-005
  0.10014999999999999          1.5077128702319111E-005
  0.10099999999999998          1.7531131006865765E-005
  0.10185000000000000          2.0365122846008247E-005
  0.10269999999999999          2.3631498847486415E-005
  0.10355000000000000          2.7388412408853184E-005
  0.10439999999999999          3.1700068562457420E-005
  0.10524999999999998          3.6637295874118264E-005
  0.10610000000000000          4.2278076634830972E-005
  0.10694999999999999          4.8708051424663412E-005
  0.10779999999999998          5.6021104150473732E-005
  0.10865000000000000          6.4320035618140267E-005
  0.10949999999999999          7.3717176756624635E-005
  0.11035000000000000          8.4334850374004445E-005
  0.11119999999999999          9.6305879301513566E-005
  0.11204999999999998          1.0977384833370743E-004
  0.11290000000000000          1.2489366935407176E-004
  0.11374999999999999          1.4183143966831196E-004
  0.11459999999999998          1.6076472193594121E-004
  0.11545000000000000          1.8188249850457962E-004
  0.11629999999999999          2.0538491069814406E-004
  0.11715000000000000          2.3148362946083474E-004
  0.11799999999999999          2.6040037234960323E-004
  0.11884999999999998          2.9236569284330849E-004
  0.11970000000000000          3.2761811728912086E-004
  0.12054999999999999          3.6640299807587162E-004
  0.12139999999999998          4.0897023936591612E-004
  0.12225000000000000          4.5557324830455413E-004
  0.12309999999999999          5.0646648187942147E-004
  0.12395000000000000          5.6190241178793760E-004
  0.12479999999999999          6.2212993783523538E-004
  0.12564999999999998          6.8739168548839324E-004
  0.12650000000000000          7.5791772034159951E-004
  0.12734999999999999          8.3392315670544092E-004
  0.12819999999999998          9.1560425608700716E-004
  0.12905000000000000          1.0031308871121098E-003
  0.12989999999999999          1.0966402753315007E-003
  0.13074999999999998          1.1962308373517627E-003
  0.13159999999999999          1.3019572909758212E-003
  0.13245000000000001          1.4138209055764236E-003
  0.13329999999999997          1.5317649001222392E-003
  0.13414999999999999          1.6556622938289148E-003
  0.13500000000000001          1.7853085629616946E-003
  0.13584999999999997          1.9204185403085539E-003
  0.13669999999999999          2.0606090895190312E-003
  0.13755000000000001          2.2053967002953895E-003
  0.13839999999999997          2.3541935642954355E-003
  0.13924999999999998          2.5062925117714011E-003
  0.14010000000000000          2.6608630624488350E-003
  0.14094999999999996          2.8169517466699935E-003
  0.14179999999999998          2.9734697808744899E-003
  0.14265000000000000          3.1291915595683321E-003
  0.14350000000000002          3.2827549265116857E-003
  0.14434999999999998          3.4326615163398659E-003
  0.14520000000000000          3.5772668620189180E-003
  0.14605000000000001          3.7147837446200498E-003
  0.14689999999999998          3.8432818483100811E-003
  0.14774999999999999          3.9606968443945444E-003
  0.14860000000000001          4.0648270016778393E-003
  0.14944999999999997          4.1533442527576930E-003
  0.15029999999999999          4.2238207583375140E-003
  0.15115000000000001          4.2737292428241275E-003
  0.15199999999999997          4.3004794222409057E-003
  0.15284999999999999          4.3014427771424380E-003
  0.15370000000000000          4.2739738148258209E-003
  0.15454999999999997          4.2154239852792586E-003
  0.15539999999999998          4.1231801507751169E-003
  0.15625000000000000          3.9946923963095184E-003
  0.15709999999999996          3.8274908439239752E-003
  0.15794999999999998          3.6192422455993563E-003
  0.15880000000000000          3.3677480786218571E-003
  0.15965000000000001          3.0710225379872473E-003
  0.16049999999999998          2.7273785960830830E-003
  0.16134999999999999          2.3354221730030149E-003
  0.16220000000000001          1.8940976227493555E-003
  0.16304999999999997          1.4027559653740315E-003
  0.16389999999999999          8.6118381057026408E-004
  0.16475000000000001          2.6963803045997070E-004
  0.16559999999999997         -3.7113033657158170E-004
  0.16644999999999999         -1.0598689471282973E-003
  0.16730000000000000         -1.7948071404547199E-003
  0.16814999999999997         -2.5735963672930090E-003
  0.16899999999999998         -3.3932712299719107E-003
  0.16985000000000000         -4.2502880032037251E-003
  0.17069999999999996         -5.1404416886554078E-003
  0.17154999999999998         -6.0588762902049611E-003
  0.17240000000000000         -7.0001724794258669E-003
  0.17325000000000002         -7.9583023844438053E-003
  0.17409999999999998         -8.9266403799769262E-003
  0.17494999999999999         -9.8980634369900348E-003
  0.17580000000000001         -1.0864960642075136E-002
  0.17664999999999997         -1.1819312925615742E-002
  0.17749999999999999         -1.2752735122283603E-002
  0.17835000000000001         -1.3656544388513832E-002
  0.17919999999999997         -1.4521840252222484E-002
  0.18004999999999999         -1.5339528556782632E-002
  0.18090000000000001         -1.6100521086867089E-002
  0.18174999999999997         -1.6795786799936704E-002
  0.18259999999999998         -1.7416428831791689E-002
  0.18345000000000000         -1.7953808725575303E-002
  0.18429999999999996         -1.8399658485077516E-002
  0.18514999999999998         -1.8746215326152477E-002
  0.18600000000000000         -1.8986297514406877E-002
  0.18684999999999996         -1.9113374298391345E-002
  0.18769999999999998         -1.9121739996008372E-002
  0.18855000000000000         -1.9006589123619352E-002
  0.18940000000000001         -1.8764084370402764E-002
  0.19024999999999997         -1.8391429869945630E-002
  0.19109999999999999         -1.7886972260356820E-002
  0.19195000000000001         -1.7250262196693657E-002
  0.19279999999999997         -1.6482075285484180E-002
  0.19364999999999999         -1.5584462983043139E-002
  0.19450000000000001         -1.4560746802935766E-002
  0.19534999999999997         -1.3415529839615803E-002
  0.19619999999999999         -1.2154730556230616E-002
  0.19705000000000000         -1.0785529901039224E-002
  0.19789999999999996         -9.3162928045827757E-003
  0.19874999999999998         -7.7565426085103714E-003
  0.19960000000000000         -6.1169135813936883E-003
  0.20044999999999996         -4.4090237950184423E-003
  0.20129999999999998         -2.6453658116033572E-003
  0.20215000000000000         -8.3922851619019673E-004
  0.20300000000000001          9.9546890526587962E-004
  0.20384999999999998          2.8442619725190716E-003
  0.20469999999999999          4.6923286861166287E-003
  0.20555000000000001          6.5246365623089046E-003
  0.20639999999999997          8.3260856692428230E-003
  0.20724999999999999          1.0081648425300814E-002
  0.20810000000000001          1.1776612363699349E-002
  0.20894999999999997          1.3396708307814989E-002
  0.20979999999999999          1.4928252628686935E-002
  0.21065000000000000          1.6358350124484021E-002
  0.21149999999999997          1.7674971799230416E-002
  0.21234999999999998          1.8867055338000694E-002
  0.21320000000000000          1.9924618400288068E-002
  0.21404999999999996          2.0838887114019784E-002
  0.21489999999999998          2.1602408160091680E-002
  0.21575000000000000          2.2209121955440090E-002
  0.21659999999999996          2.2654424621566326E-002
  0.21744999999999998          2.2935307068106103E-002
  0.21829999999999999          2.3050321142580737E-002
  0.21915000000000001          2.2999600361904387E-002
  0.21999999999999997          2.2784816307922565E-002
  0.22084999999999999          2.2409163231333785E-002
  0.22170000000000001          2.1877305808193477E-002
  0.22254999999999997          2.1195320848344797E-002
  0.22339999999999999          2.0370595010142954E-002
  0.22425000000000000          1.9411726450616049E-002
  0.22509999999999997          1.8328492638945714E-002
  0.22594999999999998          1.7131715669335159E-002
  0.22680000000000000          1.5833184276832821E-002
  0.22764999999999996          1.4445532036318412E-002
  0.22849999999999998          1.2982183428964790E-002
  0.22935000000000000          1.1457150529563758E-002
  0.23019999999999996          9.8848599588461632E-003
  0.23104999999999998          8.2800199430814250E-003
  0.23190000000000000          6.6573978136551214E-003
  0.23275000000000001          5.0317223267751813E-003
  0.23359999999999997          3.4175242841041767E-003
  0.23444999999999999          1.8289917982998623E-003
  0.23530000000000001          2.7995056089958069E-004
  0.23614999999999997         -1.2162861568158836E-003
  0.23699999999999999         -2.6470272504780005E-003
  0.23785000000000001         -4.0002407377585101E-003
  0.23869999999999997         -5.2646591245251598E-003
  0.23954999999999999         -6.4299296153039831E-003
  0.24040000000000000         -7.4867168467039232E-003
  0.24124999999999996         -8.4267156223266308E-003
  0.24209999999999998         -9.2427570557443457E-003
  0.24295000000000000         -9.9288813006357113E-003
  0.24379999999999996         -1.0480358939457250E-002
  0.24464999999999998         -1.0893692925446178E-002
  0.24550000000000000         -1.1166568144509984E-002
  0.24634999999999996         -1.1297866071844808E-002
  0.24719999999999998         -1.1287660729378545E-002
  0.24804999999999999         -1.1137214518852877E-002
  0.24890000000000001         -1.0848928674365774E-002
  0.24974999999999997         -1.0426356898154666E-002
  0.25059999999999999         -9.8741903736410622E-003
  0.25145000000000001         -9.1982708379925431E-003
  0.25229999999999997         -8.4054915928252205E-003
  0.25314999999999999         -7.5037423826621831E-003
  0.25400000000000000         -6.5018440247695724E-003
  0.25484999999999997         -5.4095126662167580E-003
  0.25569999999999998         -4.2372205119748730E-003
  0.25655000000000000         -2.9960658939341181E-003
  0.25739999999999996         -1.6977502017101998E-003
  0.25824999999999998         -3.5446634676208574E-004
  0.25910000000000000          1.0211971720189990E-003
  0.25994999999999996          2.4162647504062237E-003
  0.26079999999999998          3.8174520367807844E-003
  0.26164999999999999          5.2112811910356282E-003
  0.26249999999999996          6.5841857243280144E-003
  0.26334999999999997          7.9226367102046055E-003
  0.26419999999999999          9.2133353817078455E-003
  0.26505000000000001          1.0443337688338297E-002
  0.26589999999999997          1.1600133829192415E-002
  0.26674999999999999          1.2671816690451022E-002
  0.26760000000000000          1.3647171551349147E-002
  0.26844999999999997          1.4515687242612338E-002
  0.26929999999999998          1.5267676031848799E-002
  0.27015000000000000          1.5894355282585770E-002
  0.27099999999999996          1.6387927374594012E-002
  0.27184999999999998          1.6741680939173199E-002
  0.27270000000000000          1.6950056562610314E-002
  0.27354999999999996          1.7008760717351946E-002
  0.27439999999999998          1.6914851550205730E-002
  0.27524999999999999          1.6666791006121048E-002
  0.27609999999999996          1.6264464253118876E-002
  0.27694999999999997          1.5709185323863388E-002
  0.27779999999999999          1.5003668068650814E-002
  0.27865000000000001          1.4152012965152424E-002
  0.27949999999999997          1.3159682470035215E-002
  0.28034999999999999          1.2033502673116356E-002
  0.28120000000000001          1.0781582809629793E-002
  0.28204999999999997          9.4132858990669255E-003
  0.28289999999999998          7.9391620956138342E-003
  0.28375000000000000          6.3708729399502718E-003
  0.28459999999999996          4.7210616000710956E-003
  0.28544999999999998          3.0032289100342191E-003
  0.28630000000000000          1.2315921238992579E-003
  0.28714999999999996         -5.7909740655766166E-004
  0.28799999999999998         -2.4137055213174392E-003
  0.28885000000000000         -4.2568566285367824E-003
  0.28969999999999996         -6.0930969676426146E-003
  0.29054999999999997         -7.9070328656118804E-003
  0.29139999999999999         -9.6834458068448970E-003
  0.29224999999999995         -1.1407466035440083E-002
  0.29309999999999997         -1.3064713170786313E-002
  0.29394999999999999         -1.4641426995501347E-002
  0.29480000000000001         -1.6124649370745720E-002
  0.29564999999999997         -1.7502337637453878E-002
  0.29649999999999999         -1.8763513092682361E-002
  0.29735000000000000         -1.9898397841765461E-002
  0.29819999999999997         -2.0898432894347618E-002
  0.29904999999999998         -2.1756412614499041E-002
  0.29990000000000000         -2.2466515570453396E-002
  0.30074999999999996         -2.3024381388670561E-002
  0.30159999999999998         -2.3427096856293569E-002
  0.30245000000000000         -2.3673215601424994E-002
  0.30329999999999996         -2.3762748028808796E-002
  0.30414999999999998         -2.3697158430078209E-002
  0.30499999999999999         -2.3479363892499217E-002
  0.30584999999999996         -2.3113617214561649E-002
  0.30669999999999997         -2.2605482639831625E-002
  0.30754999999999999         -2.1961740222693121E-002
  0.30840000000000001         -2.1190196936397232E-002
  0.30924999999999997         -2.0299656756534529E-002
  0.31009999999999999         -1.9299800159051243E-002
  0.31095000000000000         -1.8201031228754161E-002
  0.31179999999999997         -1.7014394616235551E-002
  0.31264999999999998         -1.5751461914677474E-002
  0.31350000000000000         -1.4424160292344097E-002
  0.31434999999999996         -1.3044617744573182E-002
  0.31519999999999998         -1.1625075774965011E-002
  0.31605000000000000         -1.0177721535344658E-002
  0.31689999999999996         -8.7145710646485044E-003
  0.31774999999999998         -7.2473745184835738E-003
  0.31859999999999999         -5.7874880598027516E-003
  0.31944999999999996         -4.3458302099753029E-003
  0.32029999999999997         -2.9327380601034967E-003
  0.32114999999999999         -1.5578599715063497E-003
  0.32199999999999995         -2.3009123243675081E-004
  0.32284999999999997          1.0424938891925428E-003
  0.32369999999999999          2.2526801262530280E-003
  0.32455000000000001          3.3941584072734198E-003
  0.32539999999999997          4.4615128438420231E-003
  0.32624999999999998          5.4502223257508970E-003
  0.32710000000000000          6.3566667083995200E-003
  0.32794999999999996          7.1780944991302565E-003
  0.32879999999999998          7.9126199507254039E-003
  0.32965000000000000          8.5592291873377042E-003
  0.33049999999999996          9.1177624359547946E-003
  0.33134999999999998          9.5888789026608006E-003
  0.33220000000000000          9.9740292162970694E-003
  0.33304999999999996          1.0275372041131754E-002
  0.33389999999999997          1.0495695450823152E-002
  0.33474999999999999          1.0638325221722271E-002
  0.33559999999999995          1.0707028895438097E-002
  0.33644999999999997          1.0705924818831295E-002
  0.33729999999999999          1.0639436953961651E-002
  0.33815000000000001          1.0512245769708576E-002
  0.33899999999999997          1.0329252339471498E-002
  0.33984999999999999          1.0095552279781018E-002
  0.34070000000000000          9.8163936300564008E-003
  0.34154999999999996          9.4971124475197958E-003
  0.34239999999999998          9.1430648013283745E-003
  0.34325000000000000          8.7595287118456475E-003