 -0.12000000000000000          0.0000000000000000
 -0.11914999999999999          0.0000000000000000
 -0.11830000000000000          0.0000000000000000
 -0.11745000000000000          0.0000000000000000
 -0.11660000000000000          0.0000000000000000
 -0.11574999999999999          0.0000000000000000
 -0.11490000000000000         -1.1593649249292068E-024
 -0.11405000000000000         -6.7405848223412352E-024
 -0.11320000000000000         -7.5906884052001774E-025
 -0.11234999999999999          1.5833201708673561E-022
 -0.11150000000000000          9.9877265405476563E-022
 -0.11065000000000000          3.7810903330056784E-021
 -0.10979999999999999          1.0492658290324438E-020
 -0.10894999999999999          2.2609177827745033E-020
 -0.10810000000000000          3.7696519326092872E-020
 -0.10725000000000000          4.3937034970198132E-020
 -0.10639999999999999          1.5005401323381467E-020
 -0.10554999999999999         -8.9391158183635340E-020
 -0.10470000000000000         -3.1062808092153165E-019
 -0.10385000000000000         -6.6199109470665099E-019
 -0.10299999999999999         -1.0873876092228354E-018
 -0.10214999999999999         -1.4235977261627391E-018
 -0.10130000000000000         -1.3907553318653168E-018
 -0.10045000000000000         -6.3485874952639120E-019
  -9.9599999999999994E-002     1.1691785022389978E-018
  -9.8750000000000004E-002     4.1717781051409980E-018
  -9.7900000000000001E-002     8.2031660405111637E-018
  -9.7049999999999997E-002     1.2678598088549468E-017
  -9.6199999999999994E-002     1.6585643994241650E-017
  -9.5349999999999990E-002     1.8546755309245742E-017
  -9.4500000000000001E-002     1.6920340740204534E-017
  -9.3649999999999997E-002     9.9149419272336742E-018
  -9.2799999999999994E-002    -4.2427397861870589E-018
  -9.1950000000000004E-002    -2.6954896124729694E-017
  -9.1100000000000000E-002    -5.8546993751935614E-017
  -9.0249999999999997E-002    -9.7151155243172882E-017
  -8.9399999999999993E-002    -1.3741439383122412E-016
  -8.8549999999999990E-002    -1.6966360285707722E-016
  -8.7700000000000000E-002    -1.8043123681206594E-016
  -8.6849999999999997E-002    -1.5509326445707168E-016
  -8.5999999999999993E-002    -8.2597375651417059E-017
  -8.5150000000000003E-002     3.9036986906684095E-017
  -8.4300000000000000E-002     1.9904904193926906E-016
  -8.3449999999999996E-002     3.7510634913101623E-016
  -8.2600000000000007E-002     5.4102141886458156E-016
  -8.1749999999999989E-002     6.7948537302150664E-016
  -8.0900000000000000E-002     7.9399923712012031E-016
  -8.0049999999999996E-002     9.1094303848001552E-016
  -7.9199999999999993E-002     1.0632547704314197E-015
  -7.8350000000000003E-002     1.2535267041254393E-015
  -7.7499999999999999E-002     1.4062108913986252E-015
  -7.6649999999999996E-002     1.3323294749520240E-015
  -7.5800000000000006E-002     7.3868172125773014E-016
  -7.4949999999999989E-002    -6.9097332857666266E-016
  -7.4099999999999999E-002    -3.1380707967547051E-015
  -7.3249999999999996E-002    -6.4491523201858192E-015
  -7.2399999999999992E-002    -9.9716624272290878E-015
  -7.1550000000000002E-002    -1.2531758392445395E-014
  -7.0699999999999999E-002    -1.2649926109721782E-014
  -6.9849999999999995E-002    -9.0267914112159682E-015
  -6.9000000000000006E-002    -1.2191509701387116E-015
  -6.8149999999999988E-002     9.7052282497783692E-015
  -6.7299999999999999E-002     2.0843686101907578E-014
  -6.6449999999999995E-002     2.7779560906723130E-014
  -6.5599999999999992E-002     2.5727845502610007E-014
  -6.4750000000000002E-002     1.1412421882764407E-014
  -6.3899999999999998E-002    -1.4771461522933394E-014
  -6.3049999999999995E-002    -4.7071120480008477E-014
  -6.2199999999999998E-002    -7.4059716096218907E-014
  -6.1350000000000002E-002    -8.0404771221472090E-014
  -6.0499999999999998E-002    -5.0911244428994498E-014
  -5.9650000000000002E-002     2.3763283619345955E-014
  -5.8799999999999998E-002     1.4116226452741480E-013
  -5.7950000000000002E-002     2.8287414433685299E-013
  -5.7099999999999998E-002     4.1421390002773917E-013
  -5.6249999999999994E-002     4.8908926016627395E-013
  -5.5400000000000005E-002     4.6002785548872796E-013
  -5.4550000000000001E-002     2.9162171349286099E-013
  -5.3699999999999998E-002    -2.5903808231356209E-014
  -5.2849999999999994E-002    -4.6707515745691881E-013
  -5.2000000000000005E-002    -9.6918504908717126E-013
  -5.1150000000000001E-002    -1.4399150717125086E-012
  -5.0299999999999997E-002    -1.7739199349718561E-012
  -4.9449999999999994E-002    -1.8749034216998006E-012
  -4.8600000000000004E-002    -1.6776618050152180E-012
  -4.7750000000000001E-002    -1.1640641234707839E-012
  -4.6899999999999997E-002    -3.6839971938881180E-013
  -4.6049999999999994E-002     6.2940073570782379E-013
  -4.5200000000000004E-002     1.7203397577315107E-012
  -4.4350000000000001E-002     2.7871853701041802E-012
  -4.3499999999999997E-002     3.7226528277899495E-012
  -4.2649999999999993E-002     4.4391806403090121E-012
  -4.1800000000000004E-002     4.8680344432063054E-012
  -4.0950000000000000E-002     4.9501171480296391E-012
  -4.0099999999999997E-002     4.6249204619602557E-012
  -3.9249999999999993E-002     3.8257547358603506E-012
  -3.8400000000000004E-002     2.4877340064011653E-012
  -3.7550000000000000E-002     5.7012057394379873E-013
  -3.6699999999999997E-002    -1.9118425099550753E-012
  -3.5850000000000007E-002    -4.8561712039298921E-012
  -3.5000000000000003E-002    -8.0573519186278849E-012
  -3.4150000000000000E-002    -1.1213891629271899E-011
  -3.3299999999999996E-002    -1.3963398544512615E-011
  -3.2450000000000007E-002    -1.5938600731979425E-011
  -3.1600000000000003E-002    -1.6828992005111893E-011
  -3.0750000000000000E-002    -1.6428617053361523E-011
  -2.9899999999999996E-002    -1.4653575240270492E-011
  -2.9050000000000006E-002    -1.1522691833498786E-011
  -2.8200000000000003E-002    -7.1091529386138370E-012
  -2.7349999999999999E-002    -1.4840619947308256E-012
  -2.6499999999999996E-002     5.3199532441739743E-012
  -2.5650000000000006E-002     1.3300203317128170E-011
  -2.4800000000000003E-002     2.2419424052326410E-011
  -2.3949999999999999E-002     3.2495217336301790E-011
  -2.3099999999999996E-002     4.3074710478434802E-011
  -2.2250000000000006E-002     5.3339187238593749E-011
  -2.1400000000000002E-002     6.2082921828372160E-011
  -2.0549999999999999E-002     6.7794318162210846E-011
  -1.9699999999999995E-002     6.8838913573682239E-011
  -1.8850000000000006E-002     6.3712195769346754E-011
  -1.8000000000000002E-002     5.1306033231025754E-011
  -1.7149999999999999E-002     3.1125492501987074E-011
  -1.6299999999999995E-002     3.4064014506812040E-012
  -1.5450000000000005E-002    -3.0884228984403134E-011
  -1.4600000000000002E-002    -7.0144624975055726E-011
  -1.3749999999999998E-002    -1.1227929890632076E-010
  -1.2899999999999995E-002    -1.5482093638836410E-010
  -1.2050000000000005E-002    -1.9498401798958622E-010
  -1.1200000000000002E-002    -2.2963946268535006E-010
  -1.0349999999999998E-002    -2.5524901501440326E-010
  -9.5000000000000084E-003    -2.6784009521815564E-010
  -8.6500000000000049E-003    -2.6311841068986973E-010
  -7.8000000000000014E-003    -2.3679580663579518E-010
  -6.9499999999999978E-003    -1.8515514455750836E-010
  -6.1000000000000082E-003    -1.0579771238419900E-010
  -5.2500000000000047E-003     1.5552188890667096E-012
  -4.4000000000000011E-003     1.3438119032477803E-010
  -3.5499999999999976E-003     2.8696937658005735E-010
  -2.7000000000000079E-003     4.5044996171371330E-010
  -1.8500000000000044E-003     6.1327149353458640E-010
  -1.0000000000000009E-003     7.6205628441014438E-010
  -1.4999999999999736E-004     8.8268025501762390E-010
   6.9999999999999230E-004     9.6138661474257647E-010
   1.5499999999999958E-003     9.8576555689310411E-010
   2.3999999999999994E-003     9.4549875916918429E-010
   3.2500000000000029E-003     8.3286966010867455E-010
   4.0999999999999925E-003     6.4311594619198513E-010
   4.9499999999999961E-003     3.7475538863397703E-010
   5.7999999999999996E-003     2.9988355322899289E-011
   6.6499999999999893E-003    -3.8478254485695587E-010
   7.5000000000000067E-003    -8.5837597089648958E-010
   8.3499999999999963E-003    -1.3743505993025572E-009
   9.1999999999999860E-003    -1.9108105991266947E-009
   1.0050000000000003E-002    -2.4406553263258790E-009
   1.0899999999999993E-002    -2.9323433394748017E-009
   1.1750000000000010E-002    -3.3510965187497388E-009
   1.2600000000000000E-002    -3.6603220085533100E-009
   1.3449999999999990E-002    -3.8229723925348753E-009
   1.4300000000000007E-002    -3.8025210888252512E-009
   1.5149999999999997E-002    -3.5633538754144432E-009
   1.5999999999999986E-002    -3.0705014750563791E-009
   1.6850000000000004E-002    -2.2888117449290034E-009
   1.7699999999999994E-002    -1.1817689212516323E-009
   1.8549999999999983E-002     2.8974843739940540E-010
   1.9400000000000001E-002     2.1686133170322893E-009
   2.0249999999999990E-002     4.5023945320124973E-009
   2.1100000000000008E-002     7.3442523413053992E-009
   2.1949999999999997E-002     1.0754060902535973E-008
   2.2799999999999987E-002     1.4800107157532820E-008
   2.3650000000000004E-002     1.9561641556152239E-008
   2.4499999999999994E-002     2.5132524866846336E-008
   2.5349999999999984E-002     3.1625941448610836E-008
   2.6200000000000001E-002     3.9179908453775675E-008
   2.7049999999999991E-002     4.7963479808311294E-008
   2.7900000000000008E-002     5.8183066881348978E-008
   2.8749999999999998E-002     7.0088802501129768E-008
   2.9599999999999987E-002     8.3981034029379345E-008
   3.0450000000000005E-002     1.0021691535055288E-007
   3.1299999999999994E-002     1.1921730520395539E-007
   3.2149999999999984E-002     1.4147486210964653E-007
   3.3000000000000002E-002     1.6756292395195893E-007
   3.3849999999999991E-002     1.9814588737633816E-007
   3.4700000000000009E-002     2.3399051485697114E-007
   3.5549999999999998E-002     2.7597861955091349E-007
   3.6399999999999988E-002     3.2512039292828430E-007
   3.7250000000000005E-002     3.8256841999008538E-007
   3.8099999999999995E-002     4.4963262233642028E-007
   3.8949999999999985E-002     5.2779597683055674E-007
   3.9800000000000002E-002     6.1873177100589053E-007
   4.0649999999999992E-002     7.2432290660705694E-007
   4.1500000000000009E-002     8.4668389002909038E-007
   4.2349999999999999E-002     9.8818577989572643E-007
   4.3199999999999988E-002     1.1514845117034261E-006
   4.4050000000000006E-002     1.3395505408365473E-006
   4.4899999999999995E-002     1.5557029609114887E-006
   4.5749999999999985E-002     1.8036446974878819E-006
   4.6600000000000003E-002     2.0874986215087186E-006
   4.7449999999999992E-002     2.4118464814245629E-006
   4.8299999999999982E-002     2.7817657725920389E-006
   4.9149999999999999E-002     3.2028678381933724E-006
   4.9999999999999989E-002     3.6813358120186730E-006
   5.0850000000000006E-002     4.2239629664862565E-006
   5.1699999999999996E-002     4.8381880258904084E-006
   5.2549999999999986E-002     5.5321288769955899E-006
   5.3400000000000003E-002     6.3146171048832172E-006
   5.4249999999999993E-002     7.1952198442321494E-006
   5.5099999999999982E-002     8.1842770823448968E-006
   5.5950000000000000E-002     9.2929063070163466E-006
   5.6799999999999989E-002     1.0533030425045821E-005
   5.7650000000000007E-002     1.1917382733653589E-005
   5.8499999999999996E-002     1.3459504174906128E-005
   5.9349999999999986E-002     1.5173743235800963E-005
   6.0200000000000004E-002     1.7075244727637042E-005
   6.1049999999999993E-002     1.9179919689822034E-005
   6.1899999999999983E-002     2.1504414299103636E-005
   6.2750000000000000E-002     2.4066042618823678E-005
   6.3599999999999990E-002     2.6882743885371275E-005
   6.4450000000000007E-002     2.9972974259421687E-005
   6.5299999999999997E-002     3.3355599807995374E-005
   6.6149999999999987E-002     3.7049796503773389E-005
   6.7000000000000004E-002     4.1074860870740701E-005
   6.7849999999999994E-002     4.5450050004521283E-005
   6.8699999999999983E-002     5.0194410330432034E-005
   6.9550000000000001E-002     5.5326494516225520E-005
   7.0399999999999990E-002     6.0864174378983447E-005
   7.1249999999999980E-002     6.6824341115298100E-005
   7.2099999999999997E-002     7.3222538690538111E-005
   7.2949999999999987E-002     8.0072751512323388E-005
   7.3800000000000004E-002     8.7386930125937378E-005
   7.4649999999999994E-002     9.5174709032724928E-005
   7.5499999999999984E-002     1.0344291851738893E-004
   7.6350000000000001E-002     1.1219529612684664E-004
   7.7199999999999991E-002     1.2143190758266635E-004
   7.8049999999999981E-002     1.3114877706957561E-004
   7.8899999999999998E-002     1.4133747468206767E-004
   7.9749999999999988E-002     1.5198464357429016E-004
   8.0600000000000005E-002     1.6307146086887679E-004
   8.1449999999999995E-002     1.7457338627336098E-004
   8.2299999999999984E-002     1.8645957171387111E-004
   8.3150000000000002E-002     1.9869257273242771E-004
   8.3999999999999991E-002     2.1122795807800869E-004
   8.4849999999999981E-002     2.2401390965083077E-004
   8.5699999999999998E-002     2.3699097434516468E-004
   8.6549999999999988E-002     2.5009192866961742E-004
   8.7400000000000005E-002     2.6324143063875561E-004
   8.8249999999999995E-002     2.7635605164041315E-004
   8.9099999999999985E-002     2.8934424558839004E-004
   8.9950000000000002E-002     3.0210641590744792E-004
   9.0799999999999992E-002     3.1453519960977506E-004
   9.1649999999999981E-002     3.2651537884684050E-004
   9.2499999999999999E-002     3.3792482604166858E-004
   9.3349999999999989E-002     3.4863457474138920E-004
   9.4200000000000006E-002     3.5850959562551730E-004
   9.5049999999999996E-002     3.6740958210413743E-004
   9.5899999999999985E-002     3.7518981019968588E-004
   9.6750000000000003E-002     3.8170223381821857E-004
   9.7599999999999992E-002     3.8679637506391928E-004
   9.8449999999999982E-002     3.9032098498600177E-004
   9.9299999999999999E-002     3.9212507862278656E-004
  0.10014999999999999          3.9205938065139029E-004
  0.10099999999999998          3.8997825638345431E-004
  0.10185000000000000          3.8574099877376278E-004
  0.10269999999999999          3.7921393238046346E-004
  0.10355000000000000          3.7027170245123296E-004
  0.10439999999999999          3.5879954895503034E-004
  0.10524999999999998          3.4469491481796182E-004
  0.10610000000000000          3.2786950711798991E-004
  0.10694999999999999          3.0825057230775667E-004
  0.10779999999999998          2.8578336803383286E-004
  0.10865000000000000          2.6043232576689583E-004
  0.10949999999999999          2.3218278398592080E-004
  0.11035000000000000          2.0104255923640614E-004
  0.11119999999999999          1.6704267946269339E-004
  0.11204999999999998          1.3023904061989819E-004
  0.11290000000000000          9.0713257434453309E-005
  0.11374999999999999          4.8572973318029040E-005
  0.11459999999999998          3.9525994969043169E-006
  0.11545000000000000         -4.2986489655431353E-005
  0.11629999999999999         -9.2056309727368862E-005
  0.11715000000000000         -1.4304262592699970E-004
  0.11799999999999999         -1.9570560472512914E-004
  0.11884999999999998         -2.4978080063038828E-004
  0.11970000000000000         -3.0498084135168645E-004
  0.12054999999999999         -3.6099672960045740E-004
  0.12139999999999998         -4.1749981850158757E-004
  0.12225000000000000         -4.7414429764880612E-004
  0.12309999999999999         -5.3056958288327392E-004
  0.12395000000000000         -5.8640325214024476E-004
  0.12479999999999999         -6.4126388283818839E-004
  0.12564999999999998         -6.9476440140454454E-004
  0.12650000000000000         -7.4651542299409971E-004
  0.12734999999999999         -7.9612870543138703E-004
  0.12819999999999998         -8.4322104233886625E-004
  0.12905000000000000         -8.8741764845103499E-004
  0.12989999999999999         -9.2835620541470930E-004
  0.13074999999999998         -9.6569042549566469E-004
  0.13159999999999999         -9.9909320998462251E-004
  0.13245000000000001         -1.0282610145516834E-003
  0.13329999999999997         -1.0529164493820230E-003
  0.13414999999999999         -1.0728112875069220E-003
  0.13500000000000001         -1.0877306950582723E-003
  0.13584999999999997         -1.0974935383395192E-003
  0.13669999999999999         -1.1019568082571781E-003
  0.13755000000000001         -1.1010158298820068E-003
  0.13839999999999997         -1.0946071606395581E-003
  0.13924999999999998         -1.0827085413517876E-003
  0.14010000000000000         -1.0653406463376866E-003
  0.14094999999999996         -1.0425661638817536E-003
  0.14179999999999998         -1.0144903986681209E-003
  0.14265000000000000         -9.8126084152456126E-004
  0.14350000000000002         -9.4306510695600187E-004
  0.14434999999999998         -9.0013027444557148E-004
  0.14520000000000000         -8.5272041791956252E-004
  0.14605000000000001         -8.0113460209612893E-004
  0.14689999999999998         -7.4570374739082134E-004
  0.14774999999999999         -6.8678811629408832E-004
  0.14860000000000001         -6.2477348250422355E-004
  0.14944999999999997         -5.6006766771006555E-004
  0.15029999999999999         -4.9309695080950150E-004
  0.15115000000000001         -4.2430195714610703E-004
  0.15199999999999997         -3.5413355225219376E-004
  0.15284999999999999         -2.8304827783040949E-004
  0.15370000000000000         -2.1150499652011740E-004
  0.15454999999999997         -1.3995990001274867E-004
  0.15539999999999998         -6.8863036563900217E-005
  0.15625000000000000          1.3461101615844176E-006
  0.15709999999999996          7.0242605578937429E-005
  0.15794999999999998          1.3741880336053312E-004
  0.15880000000000000          2.0248858139737487E-004
  0.15965000000000001          2.6508952909422767E-004
  0.16049999999999998          3.2488631935572923E-004
  0.16134999999999999          3.8157329296734013E-004
  0.16220000000000001          4.3487583649651256E-004
  0.16304999999999997          4.8455209706478526E-004
  0.16389999999999999          5.3039502284790208E-004
  0.16475000000000001          5.7223272700682116E-004
  0.16559999999999997          6.0992891480149761E-004
  0.16644999999999999          6.4338324471705356E-004
  0.16730000000000000          6.7253079097616148E-004
  0.16814999999999997          6.9734183906648792E-004
  0.16899999999999998          7.1782075210223952E-004
  0.16985000000000000          7.3400440195272806E-004
  0.17069999999999996          7.4596071316827427E-004
  0.17154999999999998          7.5378753163761448E-004
  0.17240000000000000          7.5760933599359614E-004
  0.17325000000000002          7.5757628723174949E-004
  0.17409999999999998          7.5386074697424241E-004
  0.17494999999999999          7.4665559894449116E-004
  0.17580000000000001          7.3617102537475122E-004
  0.17664999999999997          7.2263201730584769E-004
  0.17749999999999999          7.0627552732486511E-004
  0.17835000000000001          6.8734791292713573E-004
  0.17919999999999997          6.6610242651795183E-004
  0.18004999999999999          6.4279614593299914E-004
  0.18090000000000001          6.1768794532999929E-004
  0.18174999999999997          5.9103561300637630E-004
  0.18259999999999998          5.6309405040090934E-004
  0.18345000000000000          5.3411302992815426E-004
  0.18429999999999996          5.0433520610307001E-004
  0.18514999999999998          4.7399446616365779E-004
  0.18600000000000000          4.4331429127390164E-004
  0.18684999999999996          4.1250660761420367E-004
  0.18769999999999998          3.8177039693651580E-004
  0.18855000000000000          3.5129089588707620E-004
  0.18940000000000001          3.2123887139690977E-004
  0.19024999999999997          2.9176999012758609E-004
  0.19109999999999999          2.6302461945364641E-004
  0.19195000000000001          2.3512760667705488E-004
  0.19279999999999997          2.0818831755860874E-004
  0.19364999999999999          1.8230076328945769E-004
  0.19450000000000001          1.5754399981106573E-004
  0.19534999999999997          1.3398248544245340E-004
  0.19619999999999999          1.1166670840766873E-004
  0.19705000000000000          9.0633735198729164E-005
  0.19789999999999996          7.0908055786852073E-005
  0.19874999999999998          5.2502276876027015E-005
  0.19960000000000000          3.5418086355864298E-005
  0.20044999999999996          1.9647016893088501E-005
  0.20129999999999998          5.1714652327782628E-006
  0.20215000000000000         -8.0342955971152307E-006
  0.20300000000000001         -2.0003240673484314E-005
  0.20384999999999998         -3.0774567759676567E-005
  0.20469999999999999         -4.0392861837399138E-005
  0.20555000000000001         -4.8907122124725112E-005
  0.20639999999999997         -5.6370035506603785E-005
  0.20724999999999999         -6.2837011516718468E-005
  0.20810000000000001         -6.8365586586042936E-005
  0.20894999999999997         -7.3014587469006996E-005
  0.20979999999999999         -7.6843565895618000E-005
  0.21065000000000000         -7.9912189657132342E-005
  0.21149999999999997         -8.2279660737863826E-005
  0.21234999999999998         -8.4004298222084022E-005
  0.21320000000000000         -8.5142954576600117E-005
  0.21404999999999996         -8.5750861700369286E-005
  0.21489999999999998         -8.5881268593338949E-005
  0.21575000000000000         -8.5585050121924299E-005
  0.21659999999999996         -8.4910713158346124E-005
  0.21744999999999998         -8.3904179680558628E-005
  0.21829999999999999         -8.2608609317535317E-005
  0.21915000000000001         -8.1064446390846645E-005
  0.21999999999999997         -7.9309443062265203E-005
  0.22084999999999999         -7.7378377236526634E-005
  0.22170000000000001         -7.5303441064501932E-005
  0.22254999999999997         -7.3113956008487830E-005
  0.22339999999999999         -7.0836588678412044E-005
  0.22425000000000000         -6.8495394899383255E-005
  0.22509999999999997         -6.6111925740600433E-005
  0.22594999999999998         -6.3705374002725830E-005
  0.22680000000000000         -6.1292635314343961E-005
  0.22764999999999996         -5.8888580517804979E-005
  0.22849999999999998         -5.6506130181177555E-005
  0.22935000000000000         -5.4156480249290796E-005
  0.23019999999999996         -5.1849180239955750E-005
  0.23104999999999998         -4.9592325046368668E-005
  0.23190000000000000         -4.7392603244001528E-005
  0.23275000000000001         -4.5255479527617077E-005
  0.23359999999999997         -4.3185337900280782E-005
  0.23444999999999999         -4.1185465241808348E-005
  0.23530000000000001         -3.9258283186034087E-005
  0.23614999999999997         -3.7405414073975254E-005
  0.23699999999999999         -3.5627742460187660E-005
  0.23785000000000001         -3.3925606435987871E-005
  0.23869999999999997         -3.2298849183983156E-005
  0.23954999999999999         -3.0746918248898258E-005
  0.24040000000000000         -2.9268933166351993E-005
  0.24124999999999996         -2.7863807471322324E-005
  0.24209999999999998         -2.6530220940618518E-005
  0.24295000000000000         -2.5266657650138128E-005
  0.24379999999999996         -2.4071505722444557E-005
  0.24464999999999998         -2.2942985438575516E-005
  0.24550000000000000         -2.1879245527991691E-005
  0.24634999999999996         -2.0878319415111567E-005
  0.24719999999999998         -1.9938245189437941E-005
  0.24804999999999999         -1.9057068282470722E-005
  0.24890000000000001         -1.8232847840549562E-005
  0.24974999999999997         -1.7463750504836397E-005
  0.25059999999999999         -1.6748035490942595E-005
  0.25145000000000001         -1.6084051554070699E-005
  0.25229999999999997         -1.5470243125349893E-005
  0.25314999999999999         -1.4905175680748021E-005
  0.25400000000000000         -1.4387456468330748E-005
  0.25484999999999997         -1.3915774286723147E-005
  0.25569999999999998         -1.3488912546331974E-005
  0.25655000000000000         -1.3105714618006037E-005
  0.25739999999999996         -1.2765179391232277E-005
  0.25824999999999998         -1.2466439973724177E-005
  0.25910000000000000         -1.2208851514975817E-005
  0.25994999999999996         -1.1991990201988339E-005
  0.26079999999999998         -1.1815664649384439E-005
  0.26164999999999999         -1.1679967025798082E-005
  0.26249999999999996         -1.1585218804481642E-005
  0.26334999999999997         -1.1532030156980365E-005
  0.26419999999999999         -1.1521244823020250E-005
  0.26505000000000001         -1.1554005439691845E-005
  0.26589999999999997         -1.1631736232567994E-005
  0.26674999999999999         -1.1756207432591834E-005
  0.26760000000000000         -1.1929528360038899E-005
  0.26844999999999997         -1.2154216656249338E-005
  0.26929999999999998         -1.2433191158929366E-005
  0.27015000000000000         -1.2769788015051087E-005
  0.27099999999999996         -1.3167749996345242E-005
  0.27184999999999998         -1.3631213068264262E-005
  0.27270000000000000         -1.4164677622597123E-005
  0.27354999999999996         -1.4772971580252815E-005
  0.27439999999999998         -1.5461218661016478E-005
  0.27524999999999999         -1.6234821284071415E-005
  0.27609999999999996         -1.7099398234374967E-005
  0.27694999999999997         -1.8060776415328097E-005
  0.27779999999999999         -1.9124911803157146E-005
  0.27865000000000001         -2.0297874648488007E-005
  0.27949999999999997         -2.1585729104634849E-005
  0.28034999999999999         -2.2994487382795093E-005
  0.28120000000000001         -2.4529988713529084E-005
  0.28204999999999997         -2.6197799298751647E-005
  0.28289999999999998         -2.8003084412197555E-005
  0.28375000000000000         -2.9950476670209200E-005
  0.28459999999999996         -3.2043976038244664E-005
  0.28544999999999998         -3.4286791339776771E-005
  0.28630000000000000         -3.6681179567217788E-005
  0.28714999999999996         -3.9228397076598386E-005
  0.28799999999999998         -4.1928495866920810E-005
  0.28885000000000000         -4.4780180195622639E-005
  0.28969999999999996         -4.7780715202799382E-005
  0.29054999999999997         -5.0925760803499577E-005
  0.29139999999999999         -5.4209202579151203E-005
  0.29224999999999995         -5.7623055841733812E-005
  0.29309999999999997         -6.1157290312418254E-005
  0.29394999999999999         -6.4799693090444074E-005
  0.29480000000000001         -6.8535739511058855E-005
  0.29564999999999997         -7.2348550002627649E-005
  0.29649999999999999         -7.6218756640058708E-005
  0.29735000000000000         -8.0124495776960576E-005
  0.29819999999999997         -8.4041339758797692E-005
  0.29904999999999998         -8.7942256501945625E-005
  0.29990000000000000         -9.1797779242989703E-005
  0.30074999999999996         -9.5575833854603793E-005
  0.30159999999999998         -9.9241916192892285E-005
  0.30245000000000000         -1.0275919204649204E-004
  0.30329999999999996         -1.0608862372831699E-004
  0.30414999999999998         -1.0918915137040528E-004
  0.30499999999999999         -1.1201783296190721E-004
  0.30584999999999996         -1.1453017198447269E-004
  0.30669999999999997         -1.1668043632336078E-004
  0.30754999999999999         -1.1842196827376584E-004
  0.30840000000000001         -1.1970751619058471E-004
  0.30924999999999997         -1.2048981497568139E-004
  0.31009999999999999         -1.2072188887150424E-004
  0.31095000000000000         -1.2035751241119818E-004
  0.31179999999999997         -1.1935177711609623E-004
  0.31264999999999998         -1.1766164943370722E-004
  0.31350000000000000         -1.1524633066036885E-004
  0.31434999999999996         -1.1206807449574451E-004
  0.31519999999999998         -1.0809256309734197E-004
  0.31605000000000000         -1.0328954533647871E-004
  0.31689999999999996         -9.7633514132875777E-005
  0.31774999999999998         -9.1104207978580430E-005
  0.31859999999999999         -8.3687260357494312E-005
  0.31944999999999996         -7.5374562934654065E-005
  0.32029999999999997         -6.6164893662970867E-005
  0.32114999999999999         -5.6064228212922325E-005
  0.32199999999999995         -4.5086107242204607E-005
  0.32284999999999997         -3.3251961239177458E-005
  0.32369999999999999         -2.0591370803185479E-005
  0.32455000000000001         -7.1423100269387445E-006
  0.32539999999999997          7.0488830902945200E-006
  0.32624999999999998          2.1927459034616767E-005
  0.32710000000000000          3.7430283093644154E-005
  0.32794999999999996          5.3486002023724866E-005
  0.32879999999999998          7.0015376771617215E-005
  0.32965000000000000          8.6931654010016416E-005
  0.33049999999999996          1.0414100468553654E-004
  0.33134999999999998          1.2154319435650752E-004
  0.33220000000000000          1.3903225314041052E-004
  0.33304999999999996          1.5649726574923088E-004
  0.33389999999999997          1.7382318304734579E-004
  0.33474999999999999          1.9089181787365313E-004
  0.33559999999999995          2.0758273436297735E-004
  0.33644999999999997          2.2377441281994895E-004
  0.33729999999999999          2.3934526721356748E-004
  0.33815000000000001          2.5417468612173855E-004
  0.33899999999999997          2.6814424785881989E-004
  0.33984999999999999          2.8113896465500725E-004
  0.34070000000000000          2.9304843705800076E-004
  0.34154999999999996          3.0376792491181368E-004
  0.34239999999999998          3.1319964964342836E-004
  0.34325000000000000          3.2125378938617722E-004