 -0.12000000000000000          0.0000000000000000
 -0.11914999999999999          0.0000000000000000
 -0.11830000000000000          0.0000000000000000
 -0.11745000000000000          0.0000000000000000
 -0.11660000000000000          0.0000000000000000
 -0.11574999999999999          1.0651551443486480E-018
 -0.11490000000000000          1.4553507446176218E-017
 -0.11405000000000000          9.2189572839493739E-017
 -0.11320000000000000          3.6799661428175258E-016
 -0.11234999999999999          1.0296694775084145E-015
 -0.11150000000000000          2.0534756001464394E-015
 -0.11065000000000000          2.5897209146856039E-015
 -0.10979999999999999          2.4207559755388688E-016
 -0.10894999999999999         -8.8945683500230410E-015
 -0.10810000000000000         -2.8142012320549468E-014
 -0.10725000000000000         -5.5346315205110966E-014
 -0.10639999999999999         -7.6537509798912415E-014
 -0.10554999999999999         -6.2644112712478763E-014
 -0.10470000000000000          2.4084926570640528E-014
 -0.10385000000000000          2.0913088609453890E-013
 -0.10299999999999999          4.7314054402914403E-013
 -0.10214999999999999          7.2260436591727462E-013
 -0.10130000000000000          7.8827019161601098E-013
 -0.10045000000000000          4.7377377816743024E-013
  -9.9599999999999994E-002    -3.4328581440202089E-013
  -9.8750000000000004E-002    -1.5908445588767970E-012
  -9.7900000000000001E-002    -2.9291081560771534E-012
  -9.7049999999999997E-002    -3.7978210322067051E-012
  -9.6199999999999994E-002    -3.6164536968002240E-012
  -9.5349999999999990E-002    -2.0837716949390544E-012
  -9.4500000000000001E-002     5.7114494767585084E-013
  -9.3649999999999997E-002     3.5741556285483246E-012
  -9.2799999999999994E-002     5.9424799693662170E-012
  -9.1950000000000004E-002     7.0920835030727036E-012
  -9.1100000000000000E-002     7.3921910061713260E-012
  -9.0249999999999997E-002     8.1999328862947577E-012
  -8.9399999999999993E-002     1.1027226806600604E-011
  -8.8549999999999990E-002     1.5940404716255346E-011
  -8.7700000000000000E-002     1.9945716553290732E-011
  -8.6849999999999997E-002     1.6630816767490954E-011
  -8.5999999999999993E-002    -1.7302505357137807E-012
  -8.5150000000000003E-002    -3.9349608065718548E-011
  -8.4300000000000000E-002    -9.0845790780350404E-011
  -8.3449999999999996E-002    -1.3721330174150261E-010
  -8.2600000000000007E-002    -1.4794518243693491E-010
  -8.1749999999999989E-002    -9.2067668503488938E-011
  -8.0900000000000000E-002     4.3048859848187604E-011
  -8.0049999999999996E-002     2.3176196598074592E-010
  -7.9199999999999993E-002     4.0050427419569251E-010
  -7.8350000000000003E-002     4.4051522209350805E-010
  -7.7499999999999999E-002     2.4913873232609440E-010
  -7.6649999999999996E-002    -2.0689335808254682E-010
  -7.5800000000000006E-002    -8.2885851640428185E-010
  -7.4949999999999989E-002    -1.3590926141088157E-009
  -7.4099999999999999E-002    -1.4246127050570745E-009
  -7.3249999999999996E-002    -6.6771541703699822E-010
  -7.2399999999999992E-002     1.0564564099193247E-009
  -7.1550000000000002E-002     3.4796837540519389E-009
  -7.0699999999999999E-002     5.8157007867986866E-009
  -6.9849999999999995E-002     6.8500075488733817E-009
  -6.9000000000000006E-002     5.2785437591405788E-009
  -6.8149999999999988E-002     2.5808205858453999E-010
  -6.7299999999999999E-002    -7.9823363393631543E-009
  -6.6449999999999995E-002    -1.7712604395887593E-008
  -6.5599999999999992E-002    -2.5720914842690621E-008
  -6.4750000000000002E-002    -2.7961177292259667E-008
  -6.3899999999999998E-002    -2.0812099514072442E-008
  -6.3049999999999995E-002    -2.6703272252986930E-009
  -6.2199999999999998E-002     2.4637459287839605E-008
  -6.1350000000000002E-002     5.5244530055274444E-008
  -6.0499999999999998E-002     7.9945049843088736E-008
  -5.9650000000000002E-002     8.8362640973722010E-008
  -5.8799999999999998E-002     7.2222843094635256E-008
  -5.7950000000000002E-002     2.8837464366671614E-008
  -5.7099999999999998E-002    -3.6416960477731600E-008
  -5.6249999999999994E-002    -1.0978747462007747E-007
  -5.5400000000000005E-002    -1.7164260227574698E-007
  -5.4550000000000001E-002    -2.0153800014837401E-007
  -5.3699999999999998E-002    -1.8461015025694183E-007
  -5.2849999999999994E-002    -1.1731395282224371E-007
  -5.2000000000000005E-002    -1.0367990377702838E-008
  -5.1150000000000001E-002     1.1260625313367354E-007
  -5.0299999999999997E-002     2.2095471268436807E-007
  -4.9449999999999994E-002     2.8595302554291647E-007
  -4.8600000000000004E-002     2.9008151737752789E-007
  -4.7750000000000001E-002     2.3330601962834257E-007
  -4.6899999999999997E-002     1.3372036787914351E-007
  -4.6049999999999994E-002     2.1689385927994259E-008
  -4.5200000000000004E-002    -7.0969541017710237E-008
  -4.4350000000000001E-002    -1.2307687233089199E-007
  -4.3499999999999997E-002    -1.3275780593277996E-007
  -4.2649999999999993E-002    -1.1871547611365376E-007
  -4.1800000000000004E-002    -1.1260427837552123E-007
  -4.0950000000000000E-002    -1.4446817146655406E-007
  -4.0099999999999997E-002    -2.2645236724765039E-007
  -3.9249999999999993E-002    -3.4163126903945688E-007
  -3.8400000000000004E-002    -4.4387349982985258E-007
  -3.7550000000000000E-002    -4.7111416720953765E-007
  -3.6699999999999997E-002    -3.6920363198207619E-007
  -3.5850000000000007E-002    -1.1848425959702350E-007
  -3.5000000000000003E-002     2.4748785106094242E-007
  -3.4150000000000000E-002     6.4061675544070972E-007
  -3.3299999999999996E-002     9.3875168108579234E-007
  -3.2450000000000007E-002     1.0245236819463102E-006
  -3.1600000000000003E-002     8.3109110677823058E-007
  -3.0750000000000000E-002     3.7838206540207998E-007
  -2.9899999999999996E-002    -2.1600224127974238E-007
  -2.9050000000000006E-002    -7.6030622265367647E-007
  -2.8200000000000003E-002    -1.0441540155047326E-006
  -2.7349999999999999E-002    -9.1125834389836764E-007
  -2.6499999999999996E-002    -3.2557040950393666E-007
  -2.5650000000000006E-002     5.9429076126621908E-007
  -2.4800000000000003E-002     1.5896249018159413E-006
  -2.3949999999999999E-002     2.3273622088399230E-006
  -2.3099999999999996E-002     2.5006673294580462E-006
  -2.2250000000000006E-002     1.9336022707101316E-006
  -2.1400000000000002E-002     6.5371741652536420E-007
  -2.0549999999999999E-002    -1.0962692655988826E-006
  -1.9699999999999995E-002    -2.9178783815595320E-006
  -1.8850000000000006E-002    -4.3730216039650382E-006
  -1.8000000000000002E-002    -5.1206926807115709E-006
  -1.7149999999999999E-002    -5.0270707624714223E-006
  -1.6299999999999995E-002    -4.2072013722381658E-006
  -1.5450000000000005E-002    -2.9777834630428327E-006
  -1.4600000000000002E-002    -1.7316598436776844E-006
  -1.3749999999999998E-002    -7.7503095267832541E-007
  -1.2899999999999995E-002    -1.8666126375662195E-007
  -1.2050000000000005E-002     2.4339221840512465E-007
  -1.1200000000000002E-002     9.6159905695595439E-007
  -1.0349999999999998E-002     2.4898020225092474E-006
  -9.5000000000000084E-003     5.2010449777777777E-006
  -8.6500000000000049E-003     9.1069045265974849E-006
  -7.8000000000000014E-003     1.3736196012739031E-005
  -6.9499999999999978E-003     1.8161537868916765E-005
  -6.1000000000000082E-003     2.1184819868666514E-005
  -5.2500000000000047E-003     2.1638717492762596E-005
  -4.4000000000000011E-003     1.8718582485353536E-005
  -3.5499999999999976E-003     1.2241198164001435E-005
  -2.7000000000000079E-003     2.7434686840546298E-006
  -1.8500000000000044E-003    -8.6162559756599514E-006
  -1.0000000000000009E-003    -2.0331361467356669E-005
  -1.4999999999999736E-004    -3.0910918767572202E-005
   6.9999999999999230E-004    -3.9221005039938962E-005
   1.5499999999999958E-003    -4.4696420929651493E-005
   2.3999999999999994E-003    -4.7355613458709561E-005
   3.2500000000000029E-003    -4.7627473813242550E-005
   4.0999999999999925E-003    -4.6052450058760746E-005
   4.9499999999999961E-003    -4.2980048117838536E-005
   5.7999999999999996E-003    -3.8373242774759463E-005
   6.6499999999999893E-003    -3.1797649318102061E-005
   7.5000000000000067E-003    -2.2605991458136396E-005
   8.3499999999999963E-003    -1.0249368168350224E-005
   9.1999999999999860E-003     5.4107871480744477E-006
   1.0050000000000003E-002     2.3904520941704291E-005
   1.0899999999999993E-002     4.4170868550346301E-005
   1.1750000000000010E-002     6.4814445149582282E-005
   1.2600000000000000E-002     8.4507412572972350E-005
   1.3449999999999990E-002     1.0243549687640840E-004
   1.4300000000000007E-002     1.1860823676294173E-004
   1.5149999999999997E-002     1.3392302404800955E-004
   1.5999999999999986E-002     1.4996279415991194E-004
   1.6850000000000004E-002     1.6856783850705402E-004
   1.7699999999999994E-002     1.9131142497406318E-004
   1.8549999999999983E-002     2.1912151681708546E-004
   1.9400000000000001E-002     2.5207758708409197E-004
   2.0249999999999990E-002     2.8960781300439085E-004
   2.1100000000000008E-002     3.3093958071668257E-004
   2.1949999999999997E-002     3.7565450721369699E-004
   2.2799999999999987E-002     4.2429751855773020E-004
   2.3650000000000004E-002     4.7867082964482701E-004
   2.4499999999999994E-002     5.4189394019802382E-004
   2.5349999999999984E-002     6.1805926033147937E-004
   2.6200000000000001E-002     7.1176628826850657E-004
   2.7049999999999991E-002     8.2758803773945986E-004
   2.7900000000000008E-002     9.6975272612550537E-004
   2.8749999999999998E-002     1.1420946701662872E-003
   2.9599999999999987E-002     1.3484053499960473E-003
   3.0450000000000005E-002     1.5927875620802253E-003
   3.1299999999999994E-002     1.8803983381374951E-003
   3.2149999999999984E-002     2.2176599944868343E-003
   3.3000000000000002E-002     2.6123915814718528E-003
   3.3849999999999991E-002     3.0734355247058020E-003
   3.4700000000000009E-002     3.6101075395719388E-003
   3.5549999999999998E-002     4.2315851156099881E-003
   3.6399999999999988E-002     4.9461160408257295E-003
   3.7250000000000005E-002     5.7614181510609128E-003
   3.8099999999999995E-002     6.6846858923881236E-003
   3.8949999999999985E-002     7.7230608206487741E-003
   3.9800000000000002E-002     8.8853411065273735E-003
   4.0649999999999992E-002     1.0182499813014048E-002
   4.1500000000000009E-002     1.1628683522497126E-002
   4.2349999999999999E-002     1.3241262263491102E-002
   4.3199999999999988E-002     1.5040501363857171E-002
   4.4050000000000006E-002     1.7049753481875540E-002
   4.4899999999999995E-002     1.9293929883337970E-002
   4.5749999999999985E-002     2.1798690245560942E-002
   4.6600000000000003E-002     2.4589990750048571E-002
   4.7449999999999992E-002     2.7693240446265442E-002
   4.8299999999999982E-002     3.1132692105897634E-002
   4.9149999999999999E-002     3.4932099893242710E-002
   4.9999999999999989E-002     3.9114595810624410E-002
   5.0850000000000006E-002     4.3701498425671857E-002
   5.1699999999999996E-002     4.8711979049497985E-002
   5.2549999999999986E-002     5.4163584197808687E-002
   5.3400000000000003E-002     6.0071574245478480E-002
   5.4249999999999993E-002     6.6448378905541991E-002
   5.5099999999999982E-002     7.3302853682770036E-002
   5.5950000000000000E-002     8.0640239514483028E-002
   5.6799999999999989E-002     8.8464883500107699E-002
   5.7650000000000007E-002     9.6774465688176090E-002
   5.8499999999999996E-002    0.10556536854921268
   5.9349999999999986E-002    0.11482714415337311
   6.0200000000000004E-002    0.12454551938977286
   6.1049999999999993E-002    0.13469572113941125
   6.1899999999999983E-002    0.14524811469698609
   6.2750000000000000E-002    0.15615899232073327
   6.3599999999999990E-002    0.16737365162097742
   6.4450000000000007E-002    0.17882578328327578
   6.5299999999999997E-002    0.19043810710954040
   6.6149999999999987E-002    0.20211508900637379
   6.7000000000000004E-002    0.21375062201713696
   6.7849999999999994E-002    0.22522846857009762
   6.8699999999999983E-002    0.23640595400892331
   6.9550000000000001E-002    0.24713701246604261
   7.0399999999999990E-002    0.25724040353220434
   7.1249999999999980E-002    0.26653006926812239
   7.2099999999999997E-002    0.27480319435320716
   7.2949999999999987E-002    0.28183341053813321
   7.3800000000000004E-002    0.28738805234874576
   7.4649999999999994E-002    0.29121973296200737
   7.5499999999999984E-002    0.29308020658248435
   7.6350000000000001E-002    0.29269527625496228
   7.7199999999999991E-002    0.28979902317872419
   7.8049999999999981E-002    0.28414103622269449
   7.8899999999999998E-002    0.27544769984706530
   7.9749999999999988E-002    0.26345331352447160
   8.0600000000000005E-002    0.24791381523935210
   8.1449999999999995E-002    0.22856808133893639
   8.2299999999999984E-002    0.20519460746715307
   8.3150000000000002E-002    0.17756900385414981
   8.3999999999999991E-002    0.14550733276779199
   8.4849999999999981E-002    0.10884584961297704
   8.5699999999999998E-002     6.7455443560360706E-002
   8.6549999999999988E-002     2.1235040612692227E-002
   8.7400000000000005E-002    -2.9861155700416669E-002
   8.8249999999999995E-002    -8.5805289692705941E-002
   8.9099999999999985E-002   -0.14655588246780285
   8.9950000000000002E-002   -0.21200048755605028
   9.0799999999999992E-002   -0.28194782594884782
   9.1649999999999981E-002   -0.35614749431137688
   9.2499999999999999E-002   -0.43429054010474544
   9.3349999999999989E-002   -0.51599455288536944
   9.4200000000000006E-002   -0.60077330505020843
   9.5049999999999996E-002   -0.68809310230837550
   9.5899999999999985E-002   -0.77731096186774240
   9.6750000000000003E-002   -0.86773173034936424
   9.7599999999999992E-002   -0.95858571169455931
   9.8449999999999982E-002    -1.0490741904691077
   9.9299999999999999E-002    -1.1383150411407921
  0.10014999999999999         -1.2253109049225963
  0.10099999999999998         -1.3091079649931670
  0.10185000000000000         -1.3886353158384217
  0.10269999999999999         -1.4628364130069300
  0.10355000000000000         -1.5306163502658512
  0.10439999999999999         -1.5908531812010731
  0.10524999999999998         -1.6424339925810121
  0.10610000000000000         -1.6843123418318040
  0.10694999999999999         -1.7154105360647569
  0.10779999999999998         -1.7347444276989086
  0.10865000000000000         -1.7414647510151979
  0.10949999999999999         -1.7347083857680969
  0.11035000000000000         -1.7137916813358050
  0.11119999999999999         -1.6780190159930435
  0.11204999999999998         -1.6269301907726053
  0.11290000000000000         -1.5601260270519277
  0.11374999999999999         -1.4773679072285666
  0.11459999999999998         -1.3785233742166967
  0.11545000000000000         -1.2637690880345362
  0.11629999999999999         -1.1333636521690276
  0.11715000000000000        -0.98772691682370672
  0.11799999999999999        -0.82757022068537722
  0.11884999999999998        -0.65371588272125236
  0.11970000000000000        -0.46716029098650019
  0.12054999999999999        -0.26910390221225111
  0.12139999999999998         -6.0929646804282422E-002
  0.12225000000000000         0.15581667559316179
  0.12309999999999999         0.37949286750692479
  0.12395000000000000         0.60826695347018078
  0.12479999999999999         0.84019384087475668
  0.12564999999999998          1.0732633164173735
  0.12650000000000000          1.3053006938038885
  0.12734999999999999          1.5341869781149304
  0.12819999999999998          1.7576968567532794
  0.12905000000000000          1.9735911438324809
  0.12989999999999999          2.1797184962314713
  0.13074999999999998          2.3739295260933555
  0.13159999999999999          2.5541785961211660
  0.13245000000000001          2.7185080511434103
  0.13329999999999997          2.8650575742140241
  0.13414999999999999          2.9921462490631852
  0.13500000000000001          3.0982826062296209
  0.13584999999999997          3.1821133069645660
  0.13669999999999999          3.2425234582475602
  0.13755000000000001          3.2786219244083861
  0.13839999999999997          3.2898030666414093
  0.13924999999999998          3.2757245617306023
  0.14010000000000000          3.2362379056106949
  0.14094999999999996          3.1714432133463752
  0.14179999999999998          3.0817973918906971
  0.14265000000000000          2.9679856337094477
  0.14350000000000002          2.8308987364686415
  0.14434999999999998          2.6717196234241549
  0.14520000000000000          2.4919048966559330
  0.14605000000000001          2.2931059715703568
  0.14689999999999998          2.0770552016505697
  0.14774999999999999          1.8458440010308834
  0.14860000000000001          1.6015996849596572
  0.14944999999999997          1.3465921911608607
  0.15029999999999999          1.0830917875898454
  0.15115000000000001         0.81364819736943839
  0.15199999999999997         0.54070946768176686
  0.15284999999999999         0.26678149824093605
  0.15370000000000000         -5.6755216561919022E-003
  0.15454999999999997        -0.27415077176072233
  0.15539999999999998        -0.53633621142445576
  0.15625000000000000        -0.78989650917434728
  0.15709999999999996         -1.0328022384137026
  0.15794999999999998         -1.2630844136450008
  0.15880000000000000         -1.4789263300141657
  0.15965000000000001         -1.6787586679641950
  0.16049999999999998         -1.8611687936712515
  0.16134999999999999         -2.0249570546082927
  0.16220000000000001         -2.1691308921257426
  0.16304999999999997         -2.2927915608598739
  0.16389999999999999         -2.3955098051754566
  0.16475000000000001         -2.4768824262179678
  0.16559999999999997         -2.5369151649970312
  0.16644999999999999         -2.5757305131129797
  0.16730000000000000         -2.5936901502363217
  0.16814999999999997         -2.5913652457910183
  0.16899999999999998         -2.5696147265085414
  0.16985000000000000         -2.5293355367292847
  0.17069999999999996         -2.4715943505327016
  0.17154999999999998         -2.3976381143191463
  0.17240000000000000         -2.3087406758365634
  0.17325000000000002         -2.2063863295817714
  0.17409999999999998         -2.0919865004678608
  0.17494999999999999         -1.9671683464172560
  0.17580000000000001         -1.8334649626523498
  0.17664999999999997         -1.6925622494444363
  0.17749999999999999         -1.5460026028918932
  0.17835000000000001         -1.3953608171458667
  0.17919999999999997         -1.2422434240183280
  0.18004999999999999         -1.0881029100648902
  0.18090000000000001        -0.93438120798194757
  0.18174999999999997        -0.78238957103568030
  0.18259999999999998        -0.63336108478372399
  0.18345000000000000        -0.48844438461521322
  0.18429999999999996        -0.34867725292375562
  0.18514999999999998        -0.21498579343248167
  0.18600000000000000         -8.8188791240550651E-002
  0.18684999999999996          3.1040190257205620E-002
  0.18769999999999998         0.14212354366413746
  0.18855000000000000         0.24463585302038648
  0.18940000000000001         0.33825592588629533
  0.19024999999999997         0.42277809712575154
  0.19109999999999999         0.49811775478791159
  0.19195000000000001         0.56430467290996822
  0.19279999999999997         0.62139908851526249
  0.19364999999999999         0.66962635794488390
  0.19450000000000001         0.70921998170042300
  0.19534999999999997         0.74048935162783380
  0.19619999999999999         0.76379537212415960
  0.19705000000000000         0.77957420122892218
  0.19789999999999996         0.78824868306664053
  0.19874999999999998         0.79032966870496713
  0.19960000000000000         0.78632488839016590
  0.20044999999999996         0.77681026567804712
  0.20129999999999998         0.76232751446583302
  0.20215000000000000         0.74344949036956742
  0.20300000000000001         0.72075401182330234
  0.20384999999999998         0.69478265997492727
  0.20469999999999999         0.66606080236109277
  0.20555000000000001         0.63510784222662720
  0.20639999999999997         0.60238425255902928
  0.20724999999999999         0.56836404211670621
  0.20810000000000001         0.53345674696960443
  0.20894999999999997         0.49804197566901193
  0.20979999999999999         0.46249026946802496
  0.21065000000000000         0.42712851948869751
  0.21149999999999997         0.39225613818379185
  0.21234999999999998         0.35812039920310895
  0.21320000000000000         0.32494415216159206
  0.21404999999999996         0.29290765006553005
  0.21489999999999998         0.26215327438107439
  0.21575000000000000         0.23279765007472017
  0.21659999999999996         0.20491357458105722
  0.21744999999999998         0.17858076657172647
  0.21829999999999999         0.15383406697950511
  0.21915000000000001         0.13071129363309508
  0.21999999999999997         0.10925469130185099
  0.22084999999999999          8.9450651072267476E-002
  0.22170000000000001          7.1321651659044194E-002
  0.22254999999999997          5.4842689144097387E-002
  0.22339999999999999          3.9976131432717964E-002
  0.22425000000000000          2.6654717393924939E-002
  0.22509999999999997          1.4813105445954480E-002
  0.22594999999999998          4.3388917394403849E-003
  0.22680000000000000         -4.8673261314036015E-003
  0.22764999999999996         -1.2918140188651426E-002
  0.22849999999999998         -1.9910472132249755E-002
  0.22935000000000000         -2.5928064607112961E-002
  0.23019999999999996         -3.1023578411099456E-002
  0.23104999999999998         -3.5263904370815877E-002
  0.23190000000000000         -3.8698732873635691E-002
  0.23275000000000001         -4.1395496819486809E-002
  0.23359999999999997         -4.3410399324186361E-002
  0.23444999999999999         -4.4817951515723840E-002
  0.23530000000000001         -4.5695960995160836E-002
  0.23614999999999997         -4.6115913624959919E-002
  0.23699999999999999         -4.6167477425463933E-002
  0.23785000000000001         -4.5930220678422527E-002
  0.23869999999999997         -4.5460753177450006E-002
  0.23954999999999999         -4.4815951145654787E-002
  0.24040000000000000         -4.4033892125185298E-002
  0.24124999999999996         -4.3130327265159467E-002
  0.24209999999999998         -4.2112117207701506E-002
  0.24295000000000000         -4.0986955443359618E-002
  0.24379999999999996         -3.9760943923230548E-002
  0.24464999999999998         -3.8445361724957203E-002
  0.24550000000000000         -3.7067955031253562E-002
  0.24634999999999996         -3.5662120485989629E-002
  0.24719999999999998         -3.4276463229586267E-002
  0.24804999999999999         -3.2956190077215501E-002
  0.24890000000000001         -3.1743806002054911E-002
  0.24974999999999997         -3.0661005007043707E-002
  0.25059999999999999         -2.9720245495707797E-002
  0.25145000000000001         -2.8903262285142263E-002
  0.25229999999999997         -2.8190946183859620E-002
  0.25314999999999999         -2.7544974976298178E-002
  0.25400000000000000         -2.6942797701751901E-002
  0.25484999999999997         -2.6370259863886168E-002
  0.25569999999999998         -2.5839580798409159E-002
  0.25655000000000000         -2.5373158172970839E-002
  0.25739999999999996         -2.5011090190805441E-002
  0.25824999999999998         -2.4802169394047134E-002
  0.25910000000000000         -2.4780999168416081E-002
  0.25994999999999996         -2.4976361553506465E-002
  0.26079999999999998         -2.5396345862847856E-002
  0.26164999999999999         -2.6032833719309617E-002
  0.26249999999999996         -2.6872783329213171E-002
  0.26334999999999997         -2.7898464268959259E-002
  0.26419999999999999         -2.9104162831197659E-002
  0.26505000000000001         -3.0496360936408624E-002
  0.26589999999999997         -3.2097493106033569E-002
  0.26674999999999999         -3.3935814173172069E-002
  0.26760000000000000         -3.6044191890407931E-002
  0.26844999999999997         -3.8444322865768675E-002
  0.26929999999999998         -4.1143848910282124E-002
  0.27015000000000000         -4.4132225032160882E-002
  0.27099999999999996         -4.7383767179589829E-002
  0.27184999999999998         -5.0860590242066031E-002
  0.27270000000000000         -5.4518180548187758E-002
  0.27354999999999996         -5.8320051646124811E-002
  0.27439999999999998         -6.2231286819359133E-002
  0.27524999999999999         -6.6227589333915649E-002
  0.27609999999999996         -7.0290061851761107E-002
  0.27694999999999997         -7.4391570853494876E-002
  0.27779999999999999         -7.8512394661950660E-002
  0.27865000000000001         -8.2604378616035312E-002
  0.27949999999999997         -8.6615688523038761E-002
  0.28034999999999999         -9.0474773833917180E-002
  0.28120000000000001         -9.4098430062968544E-002
  0.28204999999999997         -9.7393333971720494E-002
  0.28289999999999998        -0.10026852536573221
  0.28375000000000000        -0.10262065783526064
  0.28459999999999996        -0.10435702928985383
  0.28544999999999998        -0.10538307652127889
  0.28630000000000000        -0.10561411416837418
  0.28714999999999996        -0.10495471018660876
  0.28799999999999998        -0.10330779060470276
  0.28885000000000000        -0.10058828670367043
  0.28969999999999996         -9.6703923033947356E-002
  0.29054999999999997         -9.1563000321342333E-002
  0.29139999999999999         -8.5067459941094076E-002
  0.29224999999999995         -7.7136123727424927E-002
  0.29309999999999997         -6.7690408021788731E-002
  0.29394999999999999         -5.6657383705027292E-002
  0.29480000000000001         -4.3991440033098905E-002
  0.29564999999999997         -2.9640232614583414E-002
  0.29649999999999999         -1.3580730162710134E-002
  0.29735000000000000          4.2128289816005518E-003
  0.29819999999999997          2.3737571806372842E-002
  0.29904999999999998          4.4979466896720041E-002
  0.29990000000000000          6.7921576360935959E-002
  0.30074999999999996          9.2507119523712766E-002
  0.30159999999999998         0.11865510796059232
  0.30245000000000000         0.14626512518132029
  0.30329999999999996         0.17520629060776630
  0.30414999999999998         0.20532804992069847
  0.30499999999999999         0.23641992459985975
  0.30584999999999996         0.26826076733516135
  0.30669999999999997         0.30060440268040672
  0.30754999999999999         0.33316365414712357
  0.30840000000000001         0.36563541951806250
  0.30924999999999997         0.39770535281265301
  0.31009999999999999         0.42906840198264301
  0.31095000000000000         0.45937932599608478
  0.31179999999999997         0.48827572576565337
  0.31264999999999998         0.51541391713524698
  0.31350000000000000         0.54039458961526965
  0.31434999999999996         0.56281583783344380
  0.31519999999999998         0.58228187863349712
  0.31605000000000000         0.59833681876303824
  0.31689999999999996         0.61056640119158589
  0.31774999999999998         0.61856620064786039
  0.31859999999999999         0.62201335088225429
  0.31944999999999996         0.62056028711857403
  0.32029999999999997         0.61396332871420201
  0.32114999999999999         0.60198584848407932
  0.32199999999999995         0.58445194797131650
  0.32284999999999997         0.56122416682144916
  0.32369999999999999         0.53219266632889783
  0.32455000000000001         0.49731098713903099
  0.32539999999999997         0.45658320131969854
  0.32624999999999998         0.41006509194033930
  0.32710000000000000         0.35786773482762851
  0.32794999999999996         0.30023572840867790
  0.32879999999999998         0.23743428237265149
  0.32965000000000000         0.16985929291206625
  0.33049999999999996          9.7978383842468472E-002
  0.33134999999999998          2.2308841892449856E-002
  0.33220000000000000         -5.6567683816601932E-002
  0.33304999999999996        -0.13803268781480360
  0.33389999999999997        -0.22144244720484976
  0.33474999999999999        -0.30610286327790259
  0.33559999999999995        -0.39128015399110860
  0.33644999999999997        -0.47623882398444350
  0.33729999999999999        -0.56020329384217937
  0.33815000000000001        -0.64232825629738510
  0.33899999999999997        -0.72179086186517161
  0.33984999999999999        -0.79773621958099417
  0.34070000000000000        -0.86932591406749016
  0.34154999999999996        -0.93578032368962138
  0.34239999999999998        -0.99634124723617379
  0.34325000000000000         -1.0503530791053666
  0.34409999999999996         -1.0972015752655204
  0.34494999999999998         -1.1363462276437459
  0.34580000000000000         -1.1673107302704044
  0.34664999999999996         -1.1896823082144741
  0.34749999999999998         -1.2031458012095864
  0.34834999999999999         -1.2074573213163984
  0.34919999999999995         -1.2024355554130806
  0.35004999999999997         -1.1879991013058147
  0.35089999999999999         -1.1641868713492602
  0.35174999999999995         -1.1311468644227556
  0.35259999999999997         -1.0891440305242752
  0.35344999999999999         -1.0385043567097245
  0.35430000000000000        -0.97967800271034233
  0.35514999999999997        -0.91318722348120973
  0.35599999999999998        -0.83965836443595054
  0.35685000000000000        -0.75975027982227150
  0.35769999999999996        -0.67418314783150424
  0.35854999999999998        -0.58375219867087291
  0.35940000000000000        -0.48928565878125874
  0.36024999999999996        -0.39165113776169641
  0.36109999999999998        -0.29172802448303603
  0.36194999999999999        -0.19047724046829301
  0.36279999999999996         -8.8769501746735133E-002