 -0.12000000000000000          0.0000000000000000
 -0.11914999999999999          0.0000000000000000
 -0.11830000000000000          0.0000000000000000
 -0.11745000000000000          0.0000000000000000
 -0.11660000000000000          0.0000000000000000
 -0.11574999999999999          4.5269091229978211E-022
 -0.11490000000000000          7.0906219231167143E-021
 -0.11405000000000000          5.2456434326400524E-020
 -0.11320000000000000          2.4803558714010208E-019
 -0.11234999999999999          8.4204369948496919E-019
 -0.11150000000000000          2.1523803504613787E-018
 -0.11065000000000000          4.1257384273519165E-018
 -0.10979999999999999          5.3292518153043801E-018
 -0.10894999999999999          1.6519425132937512E-018
 -0.10810000000000000         -1.4088604609192456E-017
 -0.10725000000000000         -4.9571145951269864E-017
 -0.10639999999999999         -1.0562177796536434E-016
 -0.10554999999999999         -1.6477396587513570E-016
 -0.10470000000000000         -1.8116162174006537E-016
 -0.10385000000000000         -8.2044942393314397E-017
 -0.10299999999999999          2.0792040537288583E-016
 -0.10214999999999999          7.1611198921930139E-016
 -0.10130000000000000          1.3582336481698343E-015
 -0.10045000000000000          1.8946023798773606E-015
  -9.9599999999999994E-002     1.9500598366324443E-015
  -9.8750000000000004E-002     1.1280543443564811E-015
  -9.7900000000000001E-002    -7.9292549194105504E-016
  -9.7049999999999997E-002    -3.6518703086546339E-015
  -9.6199999999999994E-002    -6.8029370335995027E-015
  -9.5349999999999990E-002    -9.2255331773655218E-015
  -9.4500000000000001E-002    -9.8683995445439612E-015
  -9.3649999999999997E-002    -8.1066455163106436E-015
  -9.2799999999999994E-002    -4.0620763388411994E-015
  -9.1950000000000004E-002     1.4776110816557320E-015
  -9.1100000000000000E-002     7.6334261293343858E-015
  -9.0249999999999997E-002     1.4260082141207451E-014
  -8.9399999999999993E-002     2.2431624814691023E-014
  -8.8549999999999990E-002     3.3892867561229679E-014
  -8.7700000000000000E-002     4.9144471417430446E-014
  -8.6849999999999997E-002     6.4689501078074089E-014
  -8.5999999999999993E-002     7.1022246178597449E-014
  -8.5150000000000003E-002     5.3563304500007468E-014
  -8.4300000000000000E-002    -1.7697488306378171E-015
  -8.3449999999999996E-002    -9.8694858032801975E-014
  -8.2600000000000007E-002    -2.1988721126295563E-013
  -8.1749999999999989E-002    -3.2189266918922188E-013
  -8.0900000000000000E-002    -3.4272565748763664E-013
  -8.0049999999999996E-002    -2.2593110762372754E-013
  -7.9199999999999993E-002     4.2782144962102851E-014
  -7.8350000000000003E-002     4.0021543094446670E-013
  -7.7499999999999999E-002     6.9331829315755788E-013
  -7.6649999999999996E-002     7.1127256283606971E-013
  -7.5800000000000006E-002     2.7107821644104591E-013
  -7.4949999999999989E-002    -6.5880099367462352E-013
  -7.4099999999999999E-002    -1.8418757588966952E-012
  -7.3249999999999996E-002    -2.7311150177319708E-012
  -7.2399999999999992E-002    -2.5659003473436734E-012
  -7.1550000000000002E-002    -6.3804090080236417E-013
  -7.0699999999999999E-002     3.3124978765360116E-012
  -6.9849999999999995E-002     8.6954235384979608E-012
  -6.9000000000000006E-002     1.3850058233281732E-011
  -6.8149999999999988E-002     1.6203124510126255E-011
  -6.7299999999999999E-002     1.2920316135510250E-011
  -6.6449999999999995E-002     1.9999657520236384E-012
  -6.5599999999999992E-002    -1.6459278131692715E-011
  -6.4750000000000002E-002    -3.9274167333332796E-011
  -6.3899999999999998E-002    -6.0002808950648892E-011
  -6.3049999999999995E-002    -6.9982839037250209E-011
  -6.2199999999999998E-002    -6.0646806938406933E-011
  -6.1350000000000002E-002    -2.6696958303925968E-011
  -6.0499999999999998E-002     3.0758614379993241E-011
  -5.9650000000000002E-002     1.0228937179171347E-010
  -5.8799999999999998E-002     1.7053819961203023E-010
  -5.7950000000000002E-002     2.1348884179512431E-010
  -5.7099999999999998E-002     2.1026755687676709E-010
  -5.6249999999999994E-002     1.4813067250092330E-010
  -5.5400000000000005E-002     2.8522898268810849E-011
  -5.4550000000000001E-002    -1.3007885771853740E-010
  -5.3699999999999998E-002    -2.9419180374370297E-010
  -5.2849999999999994E-002    -4.2250953159540144E-010
  -5.2000000000000005E-002    -4.7677437502069838E-010
  -5.1150000000000001E-002    -4.3332310572501469E-010
  -5.0299999999999997E-002    -2.9155968601098161E-010
  -4.9449999999999994E-002    -7.6123910816968951E-011
  -4.8600000000000004E-002     1.6869078511555444E-010
  -4.7750000000000001E-002     3.9113039684899421E-010
  -4.6899999999999997E-002     5.4711662509464666E-010
  -4.6049999999999994E-002     6.1316578850859069E-010
  -4.5200000000000004E-002     5.9222170849379366E-010
  -4.4350000000000001E-002     5.0975198103946168E-010
  -4.3499999999999997E-002     4.0102224808233046E-010
  -4.2649999999999993E-002     2.9414611662048541E-010
  -4.1800000000000004E-002     1.9583526562743771E-010
  -4.0950000000000000E-002     8.6579610990211779E-011
  -4.0099999999999997E-002    -7.1061569194106803E-011
  -3.9249999999999993E-002    -3.1249705918529068E-010
  -3.8400000000000004E-002    -6.4633669957275775E-010
  -3.7550000000000000E-002    -1.0352066371838625E-009
  -3.6699999999999997E-002    -1.3923415857759046E-009
  -3.5850000000000007E-002    -1.5996089002350596E-009
  -3.5000000000000003E-002    -1.5447823845919618E-009
  -3.4150000000000000E-002    -1.1673379485198318E-009
  -3.3299999999999996E-002    -4.9610627386096724E-010
  -3.2450000000000007E-002     3.3828580665724168E-010
  -3.1600000000000003E-002     1.1269222429106613E-009
  -3.0750000000000000E-002     1.6409483325705920E-009
  -2.9899999999999996E-002     1.7099596613348303E-009
  -2.9050000000000006E-002     1.2950285298822813E-009
  -2.8200000000000003E-002     5.2813304714342694E-010
  -2.7349999999999999E-002    -3.0291706284199722E-010
  -2.6499999999999996E-002    -8.2856945040899448E-010
  -2.5650000000000006E-002    -7.1436320754733507E-010
  -2.4800000000000003E-002     2.1380061032574936E-010
  -2.3949999999999999E-002     1.8785206627334430E-009
  -2.3099999999999996E-002     3.9304326335036852E-009
  -2.2250000000000006E-002     5.8149980460973632E-009
  -2.1400000000000002E-002     6.9146092565112016E-009
  -2.0549999999999999E-002     6.7265249124557539E-009
  -1.9699999999999995E-002     5.0205110350999001E-009
  -1.8850000000000006E-002     1.9218786871601075E-009
  -1.8000000000000002E-002    -2.1129482533856011E-009
  -1.7149999999999999E-002    -6.4257488395685470E-009
  -1.6299999999999995E-002    -1.0350317179113675E-008
  -1.5450000000000005E-002    -1.3403935694825385E-008
  -1.4600000000000002E-002    -1.5405449293884416E-008
  -1.3749999999999998E-002    -1.6470791629571424E-008
  -1.2899999999999995E-002    -1.6879510034066519E-008
  -1.2050000000000005E-002    -1.6855397793401989E-008
  -1.1200000000000002E-002    -1.6343275300273035E-008
  -1.0349999999999998E-002    -1.4876428422746441E-008
  -9.5000000000000084E-003    -1.1607817877478364E-008
  -8.6500000000000049E-003    -5.5269365942935209E-009
  -7.8000000000000014E-003     4.1813826543263481E-009
  -6.9499999999999978E-003     1.7737919845913786E-008
  -6.1000000000000082E-003     3.4460129296442576E-008
  -5.2500000000000047E-003     5.2660133937172092E-008
  -4.4000000000000011E-003     6.9811982827785716E-008
  -3.5499999999999976E-003     8.2969898000300506E-008
  -2.7000000000000079E-003     8.9338379685259316E-008
  -1.8500000000000044E-003     8.6842439992438629E-008
  -1.0000000000000009E-003     7.4539708592930929E-008
  -1.4999999999999736E-004     5.2761742308268678E-008
   6.9999999999999230E-004     2.2955670728666549E-008
   1.5499999999999958E-003    -1.2709226758963581E-008
   2.3999999999999994E-003    -5.1831330272195085E-008
   3.2500000000000029E-003    -9.2199130822461275E-008
   4.0999999999999925E-003    -1.3201308988247491E-007
   4.9499999999999961E-003    -1.6985192173972704E-007
   5.7999999999999996E-003    -2.0442707165374286E-007
   6.6499999999999893E-003    -2.3424973355322282E-007
   7.5000000000000067E-003    -2.5737126835011088E-007
   8.3499999999999963E-003    -2.7133480315540248E-007
   9.1999999999999860E-003    -2.7339118138169140E-007
   1.0050000000000003E-002    -2.6093218123793877E-007
   1.0899999999999993E-002    -2.3200006552233354E-007
   1.1750000000000010E-002    -1.8568126481574068E-007
   1.2600000000000000E-002    -1.2221956344955098E-007
   1.3449999999999990E-002    -4.2768782215192314E-008
   1.4300000000000007E-002     5.1174767203458831E-008
   1.5149999999999997E-002     1.5850043838878240E-007
   1.5999999999999986E-002     2.7915185512839936E-007
   1.6850000000000004E-002     4.1452755927404399E-007
   1.7699999999999994E-002     5.6747628245287729E-007
   1.8549999999999983E-002     7.4191015516880481E-007
   1.9400000000000001E-002     9.4216987775322336E-007
   2.0249999999999990E-002     1.1723865948622817E-006
   2.1100000000000008E-002     1.4361192861265757E-006
   2.1949999999999997E-002     1.7364220277659272E-006
   2.2799999999999987E-002     2.0764019206604374E-006
   2.3650000000000004E-002     2.4601634844871598E-006
   2.4499999999999994E-002     2.8939034671493450E-006
   2.5349999999999984E-002     3.3868828572539313E-006
   2.6200000000000001E-002     3.9520587717122559E-006
   2.7049999999999991E-002     4.6062847990110935E-006
   2.7900000000000008E-002     5.3701530178297831E-006
   2.8749999999999998E-002     6.2676882369037158E-006
   2.9599999999999987E-002     7.3261513704773715E-006
   3.0450000000000005E-002     8.5761559064424774E-006
   3.1299999999999994E-002     1.0052257480696916E-005
   3.2149999999999984E-002     1.1793930267293675E-005
   3.3000000000000002E-002     1.3846702156857352E-005
   3.3849999999999991E-002     1.6263174864962727E-005
   3.4700000000000009E-002     1.9103675778527446E-005
   3.5549999999999998E-002     2.2436393020764150E-005
   3.6399999999999988E-002     2.6336917740260018E-005
   3.7250000000000005E-002     3.0887615570302940E-005
   3.8099999999999995E-002     3.6177211087571179E-005
   3.8949999999999985E-002     4.2300504836700640E-005
   3.9800000000000002E-002     4.9359079089219473E-005
   4.0649999999999992E-002     5.7462907688428522E-005
   4.1500000000000009E-002     6.6732669669822183E-005
   4.2349999999999999E-002     7.7302417357943493E-005
   4.3199999999999988E-002     8.9322174941663582E-005
   4.4050000000000006E-002     1.0296057696203738E-004
   4.4899999999999995E-002     1.1840663070877068E-004
   4.5749999999999985E-002     1.3587098347007245E-004
   4.6600000000000003E-002     1.5558619305846612E-004
   4.7449999999999992E-002     1.7780655898792192E-004
   4.8299999999999982E-002     2.0280756894112644E-004
   4.9149999999999999E-002     2.3088507693376319E-004
   4.9999999999999989E-002     2.6235497244939566E-004
   5.0850000000000006E-002     2.9755188329728152E-004
   5.1699999999999996E-002     3.3682766110282607E-004
   5.2549999999999986E-002     3.8054990397263990E-004
   5.3400000000000003E-002     4.2909973999205305E-004
   5.4249999999999993E-002     4.8287066994616993E-004
   5.5099999999999982E-002     5.4226499674546089E-004
   5.5950000000000000E-002     6.0769092302389259E-004
   5.6799999999999989E-002     6.7956054104064691E-004
   5.7650000000000007E-002     7.5828710874954058E-004
   5.8499999999999996E-002     8.4428116141177208E-004
   5.9349999999999986E-002     9.3794794897425677E-004
   6.0200000000000004E-002     1.0396811139748597E-003
   6.1049999999999993E-002     1.1498584293557011E-003
   6.1899999999999983E-002     1.2688344841018109E-003
   6.2750000000000000E-002     1.3969325745459749E-003
   6.3599999999999990E-002     1.5344342385918625E-003
   6.4450000000000007E-002     1.6815693632469130E-003
   6.5299999999999997E-002     1.8385067514137511E-003
   6.6149999999999987E-002     2.0053425602032222E-003
   6.7000000000000004E-002     2.1820857822915552E-003
   6.7849999999999994E-002     2.3686522326194755E-003
   6.8699999999999983E-002     2.5648474849282827E-003
   6.9550000000000001E-002     2.7703540248623969E-003
   7.0399999999999990E-002     2.9847147110481447E-003
   7.1249999999999980E-002     3.2073182066201938E-003
   7.2099999999999997E-002     3.4373850800449059E-003
   7.2949999999999987E-002     3.6739558482281175E-003
   7.3800000000000004E-002     3.9158749349020557E-003
   7.4649999999999994E-002     4.1617839669884065E-003
   7.5499999999999984E-002     4.4101120650947723E-003
   7.6350000000000001E-002     4.6590660133669880E-003
   7.7199999999999991E-002     4.9066267537097794E-003
   7.8049999999999981E-002     5.1505534572818742E-003
   7.8899999999999998E-002     5.3883811622878310E-003
   7.9749999999999988E-002     5.6174153025146207E-003
   8.0600000000000005E-002     5.8347470816023711E-003
   8.1449999999999995E-002     6.0372523295665580E-003
   8.2299999999999984E-002     6.2216012404210236E-003
   8.3150000000000002E-002     6.3842749415957013E-003
   8.3999999999999991E-002     6.5215844549782456E-003
   8.4849999999999981E-002     6.6296877575476743E-003
   8.5699999999999998E-002     6.7046153246308835E-003
   8.6549999999999988E-002     6.7423064167986919E-003
   8.7400000000000005E-002     6.7386407185895036E-003
   8.8249999999999995E-002     6.6894820646199345E-003
   8.9099999999999985E-002     6.5907276860032674E-003
   8.9950000000000002E-002     6.4383403383250952E-003
   9.0799999999999992E-002     6.2284111439823197E-003
   9.1649999999999981E-002     5.9572170377261363E-003
   9.2499999999999999E-002     5.6212810544262037E-003
   9.3349999999999989E-002     5.2174122205688707E-003
   9.4200000000000006E-002     4.7427858580830276E-003
   9.5049999999999996E-002     4.1950150799317546E-003
   9.5899999999999985E-002     3.5722166585863912E-003
   9.6750000000000003E-002     2.8730716991372239E-003
   9.7599999999999992E-002     2.0968856366587259E-003
   9.8449999999999982E-002     1.2436282239168684E-003
   9.9299999999999999E-002     3.1398888440607400E-004
  0.10014999999999999         -6.9054943790168642E-004
  0.10099999999999998         -1.7676756708747616E-003
  0.10185000000000000         -2.9142167693580745E-003
  0.10269999999999999         -4.1260942100722489E-003
  0.10355000000000000         -5.3983142788248915E-003
  0.10439999999999999         -6.7249399211147922E-003
  0.10524999999999998         -8.0990867395160562E-003
  0.10610000000000000         -9.5129550014601653E-003
  0.10694999999999999         -1.0957838742196973E-002
  0.10779999999999998         -1.2424154164729770E-002
  0.10865000000000000         -1.3901542488502698E-002
  0.10949999999999999         -1.5378918755599495E-002
  0.11035000000000000         -1.6844536567918025E-002
  0.11119999999999999         -1.8286057488856377E-002
  0.11204999999999998         -1.9690660108825770E-002
  0.11290000000000000         -2.1045156990528689E-002
  0.11374999999999999         -2.2336092018552332E-002
  0.11459999999999998         -2.3549850295250103E-002
  0.11545000000000000         -2.4672821281634512E-002
  0.11629999999999999         -2.5691602583493633E-002
  0.11715000000000000         -2.6593061934797709E-002
  0.11799999999999999         -2.7364563370389634E-002
  0.11884999999999998         -2.7994108653390335E-002
  0.11970000000000000         -2.8470477820373978E-002
  0.12054999999999999         -2.8783388075127155E-002
  0.12139999999999998         -2.8923654462127930E-002
  0.12225000000000000         -2.8883332095294333E-002
  0.12309999999999999         -2.8655824219430831E-002
  0.12395000000000000         -2.8236023609686262E-002
  0.12479999999999999         -2.7620419062607673E-002
  0.12564999999999998         -2.6807198247642168E-002
  0.12650000000000000         -2.5796314071900434E-002
  0.12734999999999999         -2.4589538266876418E-002
  0.12819999999999998         -2.3190480761470577E-002
  0.12905000000000000         -2.1604681877937459E-002
  0.12989999999999999         -1.9839518997090615E-002
  0.13074999999999998         -1.7904209651998997E-002
  0.13159999999999999         -1.5809758827800374E-002
  0.13245000000000001         -1.3568869129809816E-002
  0.13329999999999997         -1.1195858836036516E-002
  0.13414999999999999         -8.7065559973678094E-003
  0.13500000000000001         -6.1181228310798492E-003
  0.13584999999999997         -3.4489488160858177E-003
  0.13669999999999999         -7.1847697858313598E-004
  0.13755000000000001          2.0530097860190989E-003
  0.13839999999999997          4.8445935761950209E-003
  0.13924999999999998          7.6349464866941790E-003
  0.14010000000000000          1.0402532998344911E-002
  0.14094999999999996          1.3125800421126151E-002
  0.14179999999999998          1.5783434896237309E-002
  0.14265000000000000          1.8354594550373575E-002
  0.14350000000000002          2.0819119764862427E-002
  0.14434999999999998          2.3157723721682278E-002
  0.14520000000000000          2.5352254660473174E-002
  0.14605000000000001          2.7385886328416934E-002
  0.14689999999999998          2.9243203424252733E-002
  0.14774999999999999          3.0910434782646084E-002
  0.14860000000000001          3.2375602683338875E-002
  0.14944999999999997          3.3628587697160303E-002
  0.15029999999999999          3.4661205857544453E-002
  0.15115000000000001          3.5467324992843753E-002
  0.15199999999999997          3.6042932184989163E-002
  0.15284999999999999          3.6386116381296178E-002
  0.15370000000000000          3.6497087848371051E-002
  0.15454999999999997          3.6378161200675427E-002
  0.15539999999999998          3.6033699936987795E-002
  0.15625000000000000          3.5470050818209482E-002
  0.15709999999999996          3.4695404161263398E-002
  0.15794999999999998          3.3719651494742979E-002
  0.15880000000000000          3.2554300847134801E-002
  0.15965000000000001          3.1212285869657217E-002
  0.16049999999999998          2.9707816618185667E-002
  0.16134999999999999          2.8056216255195807E-002
  0.16220000000000001          2.6273732672297719E-002
  0.16304999999999997          2.4377415594275208E-002
  0.16389999999999999          2.2384890293601814E-002
  0.16475000000000001          2.0314124906155327E-002
  0.16559999999999997          1.8183258608293375E-002
  0.16644999999999999          1.6010384088099051E-002
  0.16730000000000000          1.3813377653675905E-002
  0.16814999999999997          1.1609722796846373E-002
  0.16899999999999998          9.4162957368924393E-003
  0.16985000000000000          7.2492402510592885E-003
  0.17069999999999996          5.1238504507386514E-003
  0.17154999999999998          3.0544331278970060E-003
  0.17240000000000000          1.0542224521288039E-003
  0.17325000000000002         -8.6471085574336124E-004
  0.17409999999999998         -2.6915209026987272E-003
  0.17494999999999999         -4.4166532386391375E-003
  0.17580000000000001         -6.0319153099153621E-003
  0.17664999999999997         -7.5304773936243404E-003
  0.17749999999999999         -8.9068740825390801E-003
  0.17835000000000001         -1.0156957732148987E-002
  0.17919999999999997         -1.1277939935561223E-002
  0.18004999999999999         -1.2268338770610843E-002
  0.18090000000000001         -1.3127901711357880E-002
  0.18174999999999997         -1.3857531885406541E-002
  0.18259999999999998         -1.4459225446557592E-002
  0.18345000000000000         -1.4935996139162605E-002
  0.18429999999999996         -1.5291773885429346E-002
  0.18514999999999998         -1.5531325490811914E-002
  0.18600000000000000         -1.5660167900738389E-002
  0.18684999999999996         -1.5684445668483319E-002
  0.18769999999999998         -1.5610851081005220E-002
  0.18855000000000000         -1.5446480590218539E-002
  0.18940000000000001         -1.5198753208686869E-002
  0.19024999999999997         -1.4875315530017835E-002
  0.19109999999999999         -1.4483938462424724E-002
  0.19195000000000001         -1.4032407071204459E-002
  0.19279999999999997         -1.3528482654397262E-002
  0.19364999999999999         -1.2979798660392405E-002
  0.19450000000000001         -1.2393791345682770E-002
  0.19534999999999997         -1.1777666701124677E-002
  0.19619999999999999         -1.1138346315593982E-002
  0.19705000000000000         -1.0482413331603957E-002
  0.19789999999999996         -9.8160881692554835E-003
  0.19874999999999998         -9.1451911526015516E-003
  0.19960000000000000         -8.4751130910134618E-003
  0.20044999999999996         -7.8107813673096204E-003
  0.20129999999999998         -7.1566481346632986E-003
  0.20215000000000000         -6.5166932208547941E-003
  0.20300000000000001         -5.8944071476373545E-003
  0.20384999999999998         -5.2928041115027557E-003
  0.20469999999999999         -4.7144451993317892E-003
  0.20555000000000001         -4.1614475966319986E-003
  0.20639999999999997         -3.6355140571977100E-003
  0.20724999999999999         -3.1379461865898980E-003
  0.20810000000000001         -2.6696719888272343E-003
  0.20894999999999997         -2.2312850817636383E-003
  0.20979999999999999         -1.8230583637958038E-003
  0.21065000000000000         -1.4449703261254184E-003
  0.21149999999999997         -1.0967316684302080E-003
  0.21234999999999998         -7.7782116710772397E-004
  0.21320000000000000         -4.8751870127262091E-004
  0.21404999999999996         -2.2493189400397997E-004
  0.21489999999999998          1.0969772736191389E-005
  0.21575000000000000          2.2132456918449970E-004
  0.21659999999999996          4.0735185489493324E-004
  0.21744999999999998          5.7033802930723826E-004
  0.21829999999999999          7.1161531501917380E-004
  0.21915000000000001          8.3254752261817649E-004
  0.21999999999999997          9.3453344856680933E-004
  0.22084999999999999          1.0189837741845099E-003
  0.22170000000000001          1.0873114763766943E-003
  0.22254999999999997          1.1409299123844889E-003
  0.22339999999999999          1.1812269130577831E-003
  0.22425000000000000          1.2095441492216484E-003
  0.22509999999999997          1.2271671215957464E-003
  0.22594999999999998          1.2353068695234468E-003
  0.22680000000000000          1.2350825695626028E-003
  0.22764999999999996          1.2275237551854932E-003
  0.22849999999999998          1.2135713281497260E-003
  0.22935000000000000          1.1940900188827880E-003
  0.23019999999999996          1.1698864800925679E-003
  0.23104999999999998          1.1417153326885633E-003
  0.23190000000000000          1.1102815037661745E-003
  0.23275000000000001          1.0762415038009262E-003
  0.23359999999999997          1.0401989684416613E-003
  0.23444999999999999          1.0027019128589268E-003
  0.23530000000000001          9.6423320930684420E-004
  0.23614999999999997          9.2521289668661235E-004
  0.23699999999999999          8.8599220088660720E-004
  0.23785000000000001          8.4685063912137324E-004
  0.23869999999999997          8.0800944589275744E-004
  0.23954999999999999          7.6964203681221730E-004
  0.24040000000000000          7.3188111324076202E-004
  0.24124999999999996          6.9483654721124615E-004
  0.24209999999999998          6.5860856909360425E-004
  0.24295000000000000          6.2329156648624582E-004
  0.24379999999999996          5.8897368505761189E-004
  0.24464999999999998          5.5573560130844424E-004
  0.24550000000000000          5.2364236622892658E-004
  0.24634999999999996          4.9273211619364060E-004
  0.24719999999999998          4.6300842865136738E-004
  0.24804999999999999          4.3443470807655733E-004
  0.24890000000000001          4.0693719377968534E-004
  0.24974999999999997          3.8041533082623327E-004
  0.25059999999999999          3.5475342122150475E-004
  0.25145000000000001          3.2983851124565545E-004
  0.25229999999999997          3.0557361769997847E-004
  0.25314999999999999          2.8188602995982744E-004
  0.25400000000000000          2.5872864075170143E-004
  0.25484999999999997          2.3607053993960540E-004
  0.25569999999999998          2.1388123152761267E-004
  0.25655000000000000          1.9211560965561316E-004
  0.25739999999999996          1.7070230242286223E-004
  0.25824999999999998          1.4953180218637297E-004
  0.25910000000000000          1.2845894751980445E-004
  0.25994999999999996          1.0731187487070960E-004
  0.26079999999999998          8.5903309296497763E-005
  0.26164999999999999          6.4045751667034755E-005
  0.26249999999999996          4.1560788933050414E-005
  0.26334999999999997          1.8283039383361648E-005
  0.26419999999999999         -5.9429926120601177E-006
  0.26505000000000001         -3.1273137098687550E-005
  0.26589999999999997         -5.7875556739151672E-005
  0.26674999999999999         -8.5939730269218243E-005
  0.26760000000000000         -1.1568120872970237E-004
  0.26844999999999997         -1.4733883786962254E-004
  0.26929999999999998         -1.8116381727544738E-004
  0.27015000000000000         -2.1740615793144571E-004
  0.27099999999999996         -2.5630041028165251E-004
  0.27184999999999998         -2.9805424111683729E-004
  0.27270000000000000         -3.4284020286726321E-004
  0.27354999999999996         -3.9079640979668905E-004
  0.27439999999999998         -4.4203079389775379E-004
  0.27524999999999999         -4.9662586526682748E-004
  0.27609999999999996         -5.5464583528778814E-004
  0.27694999999999997         -6.1613550573067063E-004
  0.27779999999999999         -6.8111980565554954E-004
  0.27865000000000001         -7.4959459182349529E-004
  0.27949999999999997         -8.2151306667508077E-004
  0.28034999999999999         -8.9677651243127250E-004
  0.28120000000000001         -9.7522023207848182E-004
  0.28204999999999997         -1.0566041282075104E-003
  0.28289999999999998         -1.1406104360794417E-003
  0.28375000000000000         -1.2268383425100230E-003
  0.28459999999999996         -1.3148042614516153E-003
  0.28544999999999998         -1.4039438151429804E-003
  0.28630000000000000         -1.4936172532696316E-003
  0.28714999999999996         -1.5831089733756634E-003
  0.28799999999999998         -1.6716209278699631E-003
  0.28885000000000000         -1.7582769734595669E-003
  0.28969999999999996         -1.8421264189967606E-003
  0.29054999999999997         -1.9221400304968563E-003
  0.29139999999999999         -1.9972082267833828E-003
  0.29224999999999995         -2.0661449217495797E-003
  0.29309999999999997         -2.1276961002201803E-003
  0.29394999999999999         -2.1805440539931311E-003
  0.29480000000000001         -2.2233196943142915E-003
  0.29564999999999997         -2.2546129979657391E-003
  0.29649999999999999         -2.2729811512448858E-003
  0.29735000000000000         -2.2769612811449932E-003
  0.29819999999999997         -2.2650819512965172E-003
  0.29904999999999998         -2.2358779454236611E-003
  0.29990000000000000         -2.1878954362928868E-003
  0.30074999999999996         -2.1197138759501744E-003
  0.30159999999999998         -2.0299696131580269E-003
  0.30245000000000000         -1.9173778029892992E-003
  0.30329999999999996         -1.7807524279657028E-003
  0.30414999999999998         -1.6190257588587357E-003
  0.30499999999999999         -1.4312836563453049E-003
  0.30584999999999996         -1.2167948504289863E-003
  0.30669999999999997         -9.7502752373043451E-004
  0.30754999999999999         -7.0567697793983591E-004
  0.30840000000000001         -4.0868806465030436E-004
  0.30924999999999997         -8.4268300728984887E-005
  0.31009999999999999          2.6711096775705443E-004
  0.31095000000000000          6.4470223417199997E-004
  0.31179999999999997          1.0474567300661046E-003
  0.31264999999999998          1.4740254119777977E-003
  0.31350000000000000          1.9227441046949774E-003
  0.31434999999999996          2.3916093882244346E-003
  0.31519999999999998          2.8782761034973599E-003
  0.31605000000000000          3.3800387398219729E-003
  0.31689999999999996          3.8938228635555299E-003
  0.31774999999999998          4.4162048447382767E-003
  0.31859999999999999          4.9434515481701176E-003
  0.31944999999999996          5.4715452805851449E-003
  0.32029999999999997          5.9962174904511171E-003
  0.32114999999999999          6.5129973203926486E-003
  0.32199999999999995          7.0172337729346680E-003
  0.32284999999999997          7.5041459625264659E-003
  0.32369999999999999          7.9688485260820605E-003
  0.32455000000000001          8.4063863996357499E-003
  0.32539999999999997          8.8117917326043429E-003
  0.32624999999999998          9.1801180685599278E-003
  0.32710000000000000          9.5064891923716376E-003
  0.32794999999999996          9.7861817709768532E-003
  0.32879999999999998          1.0014690297386867E-002
  0.32965000000000000          1.0187790086466116E-002
  0.33049999999999996          1.0301621970945614E-002
  0.33134999999999998          1.0352743097096278E-002
  0.33220000000000000          1.0338182050863867E-002
  0.33304999999999996          1.0255476412494597E-002
  0.33389999999999997          1.0102700570506459E-002
  0.33474999999999999          9.8784945113484131E-003
  0.33559999999999995          9.5821050187676511E-003
  0.33644999999999997          9.2134090571569915E-003
  0.33729999999999999          8.7729249290903685E-003
  0.33815000000000001          8.2618506463392142E-003
  0.33899999999999997          7.6820995084638183E-003
  0.33984999999999999          7.0363026458128411E-003
  0.34070000000000000          6.3278024199974322E-003
  0.34154999999999996          5.5606328606185454E-003
  0.34239999999999998          4.7394834534557556E-003