 -0.12000000000000000          0.0000000000000000
 -0.11914999999999999          0.0000000000000000
 -0.11830000000000000          0.0000000000000000
 -0.11745000000000000          0.0000000000000000
 -0.11660000000000000          0.0000000000000000
 -0.11574999999999999          0.0000000000000000
 -0.11490000000000000          0.0000000000000000
 -0.11405000000000000          0.0000000000000000
 -0.11320000000000000          9.5510117667775676E-024
 -0.11234999999999999          1.8002517448631116E-022
 -0.11150000000000000          1.5912937703310603E-021
 -0.11065000000000000          8.9107410634050766E-021
 -0.10979999999999999          3.5342023904580454E-020
 -0.10894999999999999          1.0305506016731035E-019
 -0.10810000000000000          2.1345122918444610E-019
 -0.10725000000000000          2.3898872563542947E-019
 -0.10639999999999999         -2.9593496887453465E-019
 -0.10554999999999999         -2.4409620015787283E-018
 -0.10470000000000000         -7.6232200064972979E-018
 -0.10385000000000000         -1.6180096600947275E-017
 -0.10299999999999999         -2.3712285590089450E-017
 -0.10214999999999999         -1.5495505537013192E-017
 -0.10130000000000000          3.7619152311183012E-017
 -0.10045000000000000          1.7340314265616107E-016
  -9.9599999999999994E-002     4.1015964873872225E-016
  -9.8750000000000004E-002     6.8712751524664913E-016
  -9.7900000000000001E-002     7.8231596852612344E-016
  -9.7049999999999997E-002     2.5388949409294635E-016
  -9.6199999999999994E-002    -1.5012052489745982E-015
  -9.5349999999999990E-002    -4.9492504482142229E-015
  -9.4500000000000001E-002    -9.8008612588313115E-015
  -9.3649999999999997E-002    -1.4151198292843948E-014
  -9.2799999999999994E-002    -1.3756266273477425E-014
  -9.1950000000000004E-002    -2.1791105650103364E-015
  -9.1100000000000000E-002     2.7245191284890611E-014
  -9.0249999999999997E-002     7.6912263020601084E-014
  -8.9399999999999993E-002     1.3819244944402552E-013
  -8.8549999999999990E-002     1.8450839666352822E-013
  -8.7700000000000000E-002     1.6859174894561237E-013
  -8.6849999999999997E-002     2.9914343457160435E-014
  -8.5999999999999993E-002    -2.8224606020671504E-013
  -8.5150000000000003E-002    -7.6896442734866870E-013
  -8.4300000000000000E-002    -1.3326985936801220E-012
  -8.3449999999999996E-002    -1.7387333996325573E-012
  -8.2600000000000007E-002    -1.6173969877037746E-012
  -8.1749999999999989E-002    -5.4034577618359781E-013
  -8.0900000000000000E-002     1.8083044829049116E-012
  -8.0049999999999996E-002     5.3781046424673603E-012
  -7.9199999999999993E-002     9.4787904234889653E-012
  -7.8350000000000003E-002     1.2606607734934056E-011
  -7.7499999999999999E-002     1.2527175436184456E-011
  -7.6649999999999996E-002     6.7594737331546755E-012
  -7.5800000000000006E-002    -6.4826687585868585E-012
  -7.4949999999999989E-002    -2.7006402427121113E-011
  -7.4099999999999999E-002    -5.1355048708869372E-011
  -7.3249999999999996E-002    -7.2080240453825284E-011
  -7.2399999999999992E-002    -7.8230425431769401E-011
  -7.1550000000000002E-002    -5.7594509284487333E-011
  -7.0699999999999999E-002    -8.2391059862619741E-013
  -6.9849999999999995E-002     9.3140694518141426E-011
  -6.9000000000000006E-002     2.1175211611258269E-010
  -6.8149999999999988E-002     3.2578389426358536E-010
  -6.7299999999999999E-002     3.9088650936489558E-010
  -6.6449999999999995E-002     3.5561280690857452E-010
  -6.5599999999999992E-002     1.7623818788931824E-010
  -6.4750000000000002E-002    -1.6365001826454890E-010
  -6.3899999999999998E-002    -6.3352294228568591E-010
  -6.3049999999999995E-002    -1.1431725303475796E-009
  -6.2199999999999998E-002    -1.5444770421478670E-009
  -6.1350000000000002E-002    -1.6535949302556097E-009
  -6.0499999999999998E-002    -1.2950149795318401E-009
  -5.9650000000000002E-002    -3.6211796094291998E-010
  -5.8799999999999998E-002     1.1187845639632990E-009
  -5.7950000000000002E-002     2.9402598329945388E-009
  -5.7099999999999998E-002     4.7030239038472743E-009
  -5.6249999999999994E-002     5.8604332222002645E-009
  -5.5400000000000005E-002     5.8250028176445980E-009
  -5.4550000000000001E-002     4.1268791759931431E-009
  -5.3699999999999998E-002     5.9484176215143150E-010
  -5.2849999999999994E-002    -4.4863342413822209E-009
  -5.2000000000000005E-002    -1.0296215281880621E-008
  -5.1150000000000001E-002    -1.5524988088136698E-008
  -5.0299999999999997E-002    -1.8572152704071518E-008
  -4.9449999999999994E-002    -1.7888162106231213E-008
  -4.8600000000000004E-002    -1.2406352781144331E-008
  -4.7750000000000001E-002    -1.9726185511896475E-009
  -4.6899999999999997E-002     1.2344277671026572E-008
  -4.6049999999999994E-002     2.8176821719357104E-008
  -4.5200000000000004E-002     4.2098682551469836E-008
  -4.4350000000000001E-002     5.0197618804538239E-008
  -4.3499999999999997E-002     4.8915533884931960E-008
  -4.2649999999999993E-002     3.6005421720409114E-008
  -4.1800000000000004E-002     1.1392002153201302E-008
  -4.0950000000000000E-002    -2.2297892252964442E-008
  -4.0099999999999997E-002    -5.9734638882608419E-008
  -3.9249999999999993E-002    -9.3522655003112094E-008
  -3.8400000000000004E-002    -1.1544776498232812E-007
  -3.7550000000000000E-002    -1.1815610632915485E-007
  -3.6699999999999997E-002    -9.6951775735263361E-008
  -3.5850000000000007E-002    -5.1321438356815641E-008
  -3.5000000000000003E-002     1.4205052081219035E-008
  -3.4150000000000000E-002     9.0154608348655235E-008
  -3.3299999999999996E-002     1.6329154414622263E-007
  -3.2450000000000007E-002     2.1877271506668100E-007
  -3.1600000000000003E-002     2.4293923006479579E-007
  -3.0750000000000000E-002     2.2622723692784049E-007
  -2.9899999999999996E-002     1.6559451773735379E-007
  -2.9050000000000006E-002     6.5902530398778063E-008
  -2.8200000000000003E-002    -6.0136249837015188E-008
  -2.7349999999999999E-002    -1.9356477726085080E-007
  -2.6499999999999996E-002    -3.1214046070663397E-007
  -2.5650000000000006E-002    -3.9414736428327967E-007
  -2.4800000000000003E-002    -4.2235205637901359E-007
  -2.3949999999999999E-002    -3.8732540019757700E-007
  -2.3099999999999996E-002    -2.8945412934499301E-007
  -2.2250000000000006E-002    -1.3921347792397252E-007
  -2.1400000000000002E-002     4.4371060831720173E-008
  -2.0549999999999999E-002     2.3677033837986670E-007
  -1.9699999999999995E-002     4.1188465583004322E-007
  -1.8850000000000006E-002     5.4606802671464498E-007
  -1.8000000000000002E-002     6.2145227913576033E-007
  -1.7149999999999999E-002     6.2797437051188822E-007
  -1.6299999999999995E-002     5.6384875738865975E-007
  -1.5450000000000005E-002     4.3461240768414072E-007
  -1.4600000000000002E-002     2.5122791568409823E-007
  -1.3749999999999998E-002     2.7934186548709280E-008
  -1.2899999999999995E-002    -2.1945888335380959E-007
  -1.2050000000000005E-002    -4.7434542154310786E-007
  -1.1200000000000002E-002    -7.1905002868543835E-007
  -1.0349999999999998E-002    -9.3383461863078434E-007
  -9.5000000000000084E-003    -1.0958815165120751E-006
  -8.6500000000000049E-003    -1.1791513106715195E-006
  -7.8000000000000014E-003    -1.1559242100840398E-006
  -6.9499999999999978E-003    -1.0004843162765661E-006
  -6.1000000000000082E-003    -6.9481188770555751E-007
  -5.2500000000000047E-003    -2.3546607504718556E-007
  -4.4000000000000011E-003     3.5975566994993406E-007
  -3.5499999999999976E-003     1.0471614908346914E-006
  -2.7000000000000079E-003     1.7562623655834274E-006
  -1.8500000000000044E-003     2.3939105860575581E-006
  -1.0000000000000009E-003     2.8539400091884835E-006
  -1.4999999999999736E-004     3.0316542969971546E-006
   6.9999999999999230E-004     2.8414253829073065E-006
   1.5499999999999958E-003     2.2346867284981808E-006
   2.3999999999999994E-003     1.2151363800431882E-006
   3.2500000000000029E-003    -1.5203346267505914E-007
   4.0999999999999925E-003    -1.7393881290934619E-006
   4.9499999999999961E-003    -3.3663708287161148E-006
   5.7999999999999996E-003    -4.8181114991978914E-006
   6.6499999999999893E-003    -5.8721057140066613E-006
   7.5000000000000067E-003    -6.3294791996988883E-006
   8.3499999999999963E-003    -6.0464474434971030E-006
   9.1999999999999860E-003    -4.9611851966053780E-006
   1.0050000000000003E-002    -3.1116051505231511E-006
   1.0899999999999993E-002    -6.4059408923037994E-007
   1.1750000000000010E-002     2.2130052067906539E-006
   1.2600000000000000E-002     5.1374408091819743E-006
   1.3449999999999990E-002     7.7826600943474219E-006
   1.4300000000000007E-002     9.8022357182233847E-006
   1.5149999999999997E-002     1.0897178453885850E-005
   1.5999999999999986E-002     1.0855690665502133E-005
   1.6850000000000004E-002     9.5836027761757762E-006
   1.7699999999999994E-002     7.1213775878776145E-006
   1.8549999999999983E-002     3.6456593698415293E-006
   1.9400000000000001E-002    -5.4462776725900476E-007
   2.0249999999999990E-002    -5.0557013335457385E-006
   2.1100000000000008E-002    -9.4363551610537759E-006
   2.1949999999999997E-002    -1.3221322849920301E-005
   2.2799999999999987E-002    -1.5976268504742248E-005
   2.3650000000000004E-002    -1.7340571527723158E-005
   2.4499999999999994E-002    -1.7064885953941891E-005
   2.5349999999999984E-002    -1.5040914390638814E-005
   2.6200000000000001E-002    -1.1321303765704624E-005
   2.7049999999999991E-002    -6.1277668169819373E-006
   2.7900000000000008E-002     1.5452001931430719E-007
   2.8749999999999998E-002     6.9978648368013138E-006
   2.9599999999999987E-002     1.3769121553461657E-005
   3.0450000000000005E-002     1.9782267403233306E-005
   3.1299999999999994E-002     2.4363351669025098E-005
   3.2149999999999984E-002     2.6922696731520480E-005
   3.3000000000000002E-002     2.7026183644294580E-005
   3.3849999999999991E-002     2.4456836856700308E-005
   3.4700000000000009E-002     1.9257265545527826E-005
   3.5549999999999998E-002     1.1745764247650618E-005
   3.6399999999999988E-002     2.5017062633978951E-006
   3.7250000000000005E-002    -7.6795084157801322E-006
   3.8099999999999995E-002    -1.7857789865530507E-005
   3.8949999999999985E-002    -2.7037850148422457E-005
   3.9800000000000002E-002    -3.4266767937778140E-005
   4.0649999999999992E-002    -3.8729353196398474E-005
   4.1500000000000009E-002    -3.9831618864454222E-005
   4.2349999999999999E-002    -3.7265522427144266E-005
   4.3199999999999988E-002    -3.1049856303308663E-005
   4.4050000000000006E-002    -2.1544785809923956E-005
   4.4899999999999995E-002    -9.4384448817642827E-006
   4.5749999999999985E-002     4.2947276345633784E-006
   4.6600000000000003E-002     1.8463760480595742E-005
   4.7449999999999992E-002     3.1756814383056101E-005
   4.8299999999999982E-002     4.2858488071312148E-005
   4.9149999999999999E-002     5.0580509714032416E-005
   4.9999999999999989E-002     5.3993566460009456E-005
   5.0850000000000006E-002     5.2544460219528492E-005
   5.1699999999999996E-002     4.6141819934300988E-005
   5.2549999999999986E-002     3.5194495530545886E-005
   5.3400000000000003E-002     2.0592639560809357E-005
   5.4249999999999993E-002     3.6289561826769555E-006
   5.5099999999999982E-002    -1.4132326638371024E-005
   5.5950000000000000E-002    -3.1022741606363913E-005
   5.6799999999999989E-002    -4.5449859344419671E-005
   5.7650000000000007E-002    -5.6066052682865531E-005
   5.8499999999999996E-002    -6.1903187362830986E-005
   5.9349999999999986E-002    -6.2457425117124935E-005
   6.0200000000000004E-002    -5.7718290672413390E-005
   6.1049999999999993E-002    -4.8143952613567378E-005
   6.1899999999999983E-002    -3.4594031846748343E-005
   6.2750000000000000E-002    -1.8233111192160283E-005
   6.3599999999999990E-002    -4.2025760661357519E-007
   6.4450000000000007E-002     1.7404917905766283E-005
   6.5299999999999997E-002     3.3830793776209869E-005
   6.6149999999999987E-002     4.7574453166637593E-005
   6.7000000000000004E-002     5.7571107391246268E-005
   6.7849999999999994E-002     6.3051207375109574E-005
   6.8699999999999983E-002     6.3600446521427175E-005
   6.9550000000000001E-002     5.9196746447739930E-005
   7.0399999999999990E-002     5.0217357120977481E-005
   7.1249999999999980E-002     3.7410794537149834E-005
   7.2099999999999997E-002     2.1832763904890608E-005
   7.2949999999999987E-002     4.7508608202984252E-006
   7.3800000000000004E-002    -1.2471015604366135E-005
   7.4649999999999994E-002    -2.8494077648025080E-005
   7.5499999999999984E-002    -4.2115966910573823E-005
   7.6350000000000001E-002    -5.2359617037575614E-005
   7.7199999999999991E-002    -5.8532938900526595E-005
   7.8049999999999981E-002    -6.0258575773348830E-005
   7.8899999999999998E-002    -5.7479589762610137E-005
   7.9749999999999988E-002    -5.0448302058888287E-005
   8.0600000000000005E-002    -3.9705360511125645E-005
   8.1449999999999995E-002    -2.6052049873999357E-005
   8.2299999999999984E-002    -1.0512785183298707E-005
   8.3150000000000002E-002     5.7163888290149527E-006
   8.3999999999999991E-002     2.1341378615455968E-005
   8.4849999999999981E-002     3.5066648911461423E-005
   8.5699999999999998E-002     4.5712042068025528E-005
   8.6549999999999988E-002     5.2336851643931187E-005
   8.7400000000000005E-002     5.4352704290054137E-005
   8.8249999999999995E-002     5.1604327447875844E-005
   8.9099999999999985E-002     4.4400693985013345E-005
   8.9950000000000002E-002     3.3486789359809942E-005
   9.0799999999999992E-002     1.9959123627262866E-005
   9.1649999999999981E-002     5.1381682514455896E-006
   9.2499999999999999E-002    -9.5800460493324175E-006
   9.3349999999999989E-002    -2.2868668513485937E-005
   9.4200000000000006E-002    -3.3590807845127987E-005
   9.5049999999999996E-002    -4.0882981807482312E-005
   9.5899999999999985E-002    -4.4200730066841776E-005
   9.6750000000000003E-002    -4.3331457286362594E-005
   9.7599999999999992E-002    -3.8387971589220011E-005
   9.8449999999999982E-002    -2.9791393049946878E-005
   9.9299999999999999E-002    -1.8250591037262345E-005
  0.10014999999999999         -4.7344326163873893E-006
  0.10099999999999998          9.5700016237802185E-006
  0.10185000000000000          2.3325449686255007E-005
  0.10269999999999999          3.5144284882083595E-005
  0.10355000000000000          4.3720329071017859E-005
  0.10439999999999999          4.7980549248820292E-005
  0.10524999999999998          4.7233944752493082E-005
  0.10610000000000000          4.1292612293541888E-005
  0.10694999999999999          3.0535977198281974E-005
  0.10779999999999998          1.5901936723433625E-005
  0.10865000000000000         -1.1985817917992725E-006
  0.10949999999999999         -1.9035865656827819E-005
  0.11035000000000000         -3.5758199207813946E-005
  0.11119999999999999         -4.9604505806853698E-005
  0.11204999999999998         -5.9097798284612235E-005
  0.11290000000000000         -6.3195066455743517E-005
  0.11374999999999999         -6.1381865904505231E-005
  0.11459999999999998         -5.3706118471425186E-005
  0.11545000000000000         -4.0752391477978607E-005
  0.11629999999999999         -2.3575694600771849E-005
  0.11715000000000000         -3.6104993465048587E-006
  0.11799999999999999          1.7448890652435548E-005
  0.11884999999999998          3.7776353546743231E-005
  0.11970000000000000          5.5549770309339129E-005
  0.12054999999999999          6.9100587829971872E-005
  0.12139999999999998          7.7063168342039965E-005
  0.12225000000000000          7.8524773469936803E-005
  0.12309999999999999          7.3138757291397346E-005
  0.12395000000000000          6.1213332242038201E-005
  0.12479999999999999          4.3744755663112582E-005
  0.12564999999999998          2.2360320260746141E-005
  0.12650000000000000         -8.0300393254641254E-007
  0.12734999999999999         -2.3315625482232228E-005
  0.12819999999999998         -4.2695168960382039E-005
  0.12905000000000000         -5.6744476796300606E-005
  0.12989999999999999         -6.3782505739954845E-005
  0.13074999999999998         -6.2923550621806322E-005
  0.13159999999999999         -5.4189092843909467E-005
  0.13245000000000001         -3.8521695673730739E-005
  0.13329999999999997         -1.7728787435644125E-005
  0.13414999999999999          5.7585840828314186E-006
  0.13500000000000001          2.9202715027623965E-005
  0.13584999999999997          4.9894766584762615E-005
  0.13669999999999999          6.5547733919964815E-005
  0.13755000000000001          7.4578324870019208E-005
  0.13839999999999997          7.6363644456811593E-005
  0.13924999999999998          7.1317973203300020E-005
  0.14010000000000000          6.0822734287021406E-005
  0.14094999999999996          4.7043009131033728E-005
  0.14179999999999998          3.2630245882360612E-005
  0.14265000000000000          2.0294645298577410E-005
  0.14350000000000002          1.2597198474322536E-005
  0.14434999999999998          1.1275574528532364E-005
  0.14520000000000000          1.7286257068997542E-005
  0.14605000000000001          3.0334962844333216E-005
  0.14689999999999998          4.9114899242707611E-005
  0.14774999999999999          7.1309557685221412E-005
  0.14860000000000001          9.3876237062568733E-005
  0.14944999999999997          1.1367678657316573E-004
  0.15029999999999999          1.2788419768801281E-004
  0.15115000000000001          1.3446344861733011E-004
  0.15199999999999997          1.3251254888585031E-004
  0.15284999999999999          1.2254068080060789E-004
  0.15370000000000000          1.0654867364020263E-004
  0.15454999999999997          8.7802771211732765E-005
  0.15539999999999998          7.0156089445714870E-005
  0.15625000000000000          5.8003945062530207E-005
  0.15709999999999996          5.6152354685735494E-005
  0.15794999999999998          6.7663629977134863E-005
  0.15880000000000000          9.5139961124611781E-005
  0.15965000000000001          1.3945443122617145E-004
  0.16049999999999998          2.0049764077828341E-004
  0.16134999999999999          2.7641849645262625E-004
  0.16220000000000001          3.6460314594495113E-004
  0.16304999999999997          4.6156942317183281E-004
  0.16389999999999999          5.6476865392520478E-004
  0.16475000000000001          6.7074580302383833E-004
  0.16559999999999997          7.7724492939174603E-004
  0.16644999999999999          8.8394831375207409E-004
  0.16730000000000000          9.9034747389257116E-004
  0.16814999999999997          1.0989814880854321E-003
  0.16899999999999998          1.2108065982750639E-003
  0.16985000000000000          1.3297620614002173E-003
  0.17069999999999996          1.4605365409056457E-003
  0.17154999999999998          1.6097479842252414E-003
  0.17240000000000000          1.7817139411390624E-003
  0.17325000000000002          1.9858175857430851E-003
  0.17409999999999998          2.2297781995251707E-003
  0.17494999999999999          2.5220487038223795E-003
  0.17580000000000001          2.8667364872353718E-003
  0.17664999999999997          3.2720798686896317E-003
  0.17749999999999999          3.7397960321484667E-003
  0.17835000000000001          4.2719466173634230E-003
  0.17919999999999997          4.8686789416674970E-003
  0.18004999999999999          5.5222786429671902E-003
  0.18090000000000001          6.2285655534668940E-003
  0.18174999999999997          6.9795167777553435E-003
  0.18259999999999998          7.7647342220719222E-003
  0.18345000000000000          8.5771015360270632E-003
  0.18429999999999996          9.4124369651697373E-003
  0.18514999999999998          1.0262022284984785E-002
  0.18600000000000000          1.1126071726340581E-002
  0.18684999999999996          1.2005245948339948E-002
  0.18769999999999998          1.2907970785887573E-002
  0.18855000000000000          1.3834840571937318E-002
  0.18940000000000001          1.4797741671611677E-002
  0.19024999999999997          1.5791177675641838E-002
  0.19109999999999999          1.6806915304321837E-002
  0.19195000000000001          1.7837280132815946E-002
  0.19279999999999997          1.8863103150729199E-002
  0.19364999999999999          1.9863587007825419E-002
  0.19450000000000001          2.0790355089159007E-002
  0.19534999999999997          2.1619049814507872E-002
  0.19619999999999999          2.2322032476699862E-002
  0.19705000000000000          2.2845185122798737E-002
  0.19789999999999996          2.3155848062452848E-002
  0.19874999999999998          2.3221572464113431E-002
  0.19960000000000000          2.3011224519089442E-002
  0.20044999999999996          2.2509683360430219E-002
  0.20129999999999998          2.1677637132477542E-002
  0.20215000000000000          2.0498100876159137E-002
  0.20300000000000001          1.8947352900755804E-002
  0.20384999999999998          1.7023871733671696E-002
  0.20469999999999999          1.4707017714300273E-002
  0.20555000000000001          1.1984752066906985E-002
  0.20639999999999997          8.8762310212412553E-003
  0.20724999999999999          5.3341048732398555E-003
  0.20810000000000001          1.4008701341972098E-003
  0.20894999999999997         -2.9139631377130366E-003
  0.20979999999999999         -7.6190538043976299E-003
  0.21065000000000000         -1.2670783343478043E-002
  0.21149999999999997         -1.8052510412209538E-002
  0.21234999999999998         -2.3750285729805528E-002
  0.21320000000000000         -2.9693811124776131E-002
  0.21404999999999996         -3.5889353153060799E-002
  0.21489999999999998         -4.2259795317811634E-002
  0.21575000000000000         -4.8778003506625124E-002
  0.21659999999999996         -5.5360609214374690E-002
  0.21744999999999998         -6.1979007105773282E-002
  0.21829999999999999         -6.8545466755791956E-002
  0.21915000000000001         -7.4961307040250030E-002
  0.21999999999999997         -8.1177823109255823E-002
  0.22084999999999999         -8.7091666502474338E-002
  0.22170000000000001         -9.2593420261393958E-002
  0.22254999999999997         -9.7628826989565085E-002
  0.22339999999999999        -0.10207517424480740
  0.22425000000000000        -0.10586782116456232
  0.22509999999999997        -0.10888811866426550
  0.22594999999999998        -0.11107732029938641
  0.22680000000000000        -0.11239733127822120
  0.22764999999999996        -0.11279338748316022
  0.22849999999999998        -0.11222005785135573
  0.22935000000000000        -0.11066203690586456
  0.23019999999999996        -0.10811187203990351
  0.23104999999999998        -0.10454951601281755
  0.23190000000000000         -9.9988268504675612E-002
  0.23275000000000001         -9.4386164937476730E-002
  0.23359999999999997         -8.7796904485229699E-002
  0.23444999999999999         -8.0230005631189191E-002
  0.23530000000000001         -7.1737986097127143E-002
  0.23614999999999997         -6.2387684628437322E-002
  0.23699999999999999         -5.2202196200019702E-002
  0.23785000000000001         -4.1241773522887284E-002
  0.23869999999999997         -2.9621914591654367E-002
  0.23954999999999999         -1.7402273279514695E-002
  0.24040000000000000         -4.7269908708886732E-003
  0.24124999999999996          8.3310074264317784E-003
  0.24209999999999998          2.1629026844251234E-002
  0.24295000000000000          3.5020654462535154E-002
  0.24379999999999996          4.8450764979542871E-002
  0.24464999999999998          6.1688086192863666E-002
  0.24550000000000000          7.4695479362745398E-002
  0.24634999999999996          8.7387396752256666E-002
  0.24719999999999998          9.9596382722577731E-002
  0.24804999999999999         0.11128407824602357
  0.24890000000000001         0.12234381679015341
  0.24974999999999997         0.13262332819292214
  0.25059999999999999         0.14210449950878548
  0.25145000000000001         0.15065987120060867
  0.25229999999999997         0.15819011417091627
  0.25314999999999999         0.16463948204876813
  0.25400000000000000         0.16990571677008709
  0.25484999999999997         0.17393058031802761
  0.25569999999999998         0.17671186793725566
  0.25655000000000000         0.17823980123452768
  0.25739999999999996         0.17844861174309856
  0.25824999999999998         0.17742164359081281
  0.25910000000000000         0.17513984979519920
  0.25994999999999996         0.17164972305624071
  0.26079999999999998         0.16698113964869063
  0.26164999999999999         0.16115237447991906
  0.26249999999999996         0.15423984478629180
  0.26334999999999997         0.14635393836168148
  0.26419999999999999         0.13749268029486150
  0.26505000000000001         0.12777153493948040
  0.26589999999999997         0.11718060838252156
  0.26674999999999999         0.10591411133132028
  0.26760000000000000          9.3975658816435853E-002
  0.26844999999999997          8.1509126538371529E-002
  0.26929999999999998          6.8649853391065899E-002
  0.27015000000000000          5.5522816998593377E-002
  0.27099999999999996          4.2197602172666084E-002
  0.27184999999999998          2.8883919560445281E-002
  0.27270000000000000          1.5562008050821807E-002
  0.27354999999999996          2.3444973477229529E-003
  0.27439999999999998         -1.0673181809686147E-002
  0.27524999999999999         -2.3383637887191527E-002
  0.27609999999999996         -3.5714025695863946E-002
  0.27694999999999997         -4.7646681758774775E-002
  0.27779999999999999         -5.9009036783412613E-002
  0.27865000000000001         -6.9788166612232860E-002
  0.27949999999999997         -7.9870535850808305E-002
  0.28034999999999999         -8.9128269584393599E-002
  0.28120000000000001         -9.7616720420737629E-002
  0.28204999999999997        -0.10530111532611464
  0.28289999999999998        -0.11199555388573655
  0.28375000000000000        -0.11778456527784931
  0.28459999999999996        -0.12258983897342246
  0.28544999999999998        -0.12640692546711438
  0.28630000000000000        -0.12915558634917182
  0.28714999999999996        -0.13095908855447586
  0.28799999999999998        -0.13184718481552907
  0.28885000000000000        -0.13179414276227563
  0.28969999999999996        -0.13093259785749123
  0.29054999999999997        -0.12932524006260579
  0.29139999999999999        -0.12694380806734523
  0.29224999999999995        -0.12385542903857308
  0.29309999999999997        -0.12006480981823311
  0.29394999999999999        -0.11561812948641981
  0.29480000000000001        -0.11058154108904961
  0.29564999999999997        -0.10493223041880566
  0.29649999999999999         -9.8750464685022230E-002
  0.29735000000000000         -9.2152159977338666E-002
  0.29819999999999997         -8.5176390405748675E-002
  0.29904999999999998         -7.7890411631836257E-002
  0.29990000000000000         -7.0420917525066046E-002
  0.30074999999999996         -6.2794559284403556E-002
  0.30159999999999998         -5.5124004973992835E-002
  0.30245000000000000         -4.7461928594328628E-002
  0.30329999999999996         -3.9892553788477135E-002
  0.30414999999999998         -3.2472178470322854E-002
  0.30499999999999999         -2.5253807058089259E-002
  0.30584999999999996         -1.8293261358083394E-002
  0.30669999999999997         -1.1614113564641624E-002
  0.30754999999999999         -5.2600773284416655E-003
  0.30840000000000001          7.8553044883308831E-004
  0.30924999999999997          6.5007529985348454E-003
  0.31009999999999999          1.1871653434461204E-002
  0.31095000000000000          1.6871109555490649E-002
  0.31179999999999997          2.1464075951823782E-002
  0.31264999999999998          2.5631845750595416E-002
  0.31350000000000000          2.9339256865144832E-002
  0.31434999999999996          3.2575730443855574E-002
  0.31519999999999998          3.5323378474927905E-002
  0.31605000000000000          3.7603275553935847E-002
  0.31689999999999996          3.9446973437357369E-002
  0.31774999999999998          4.0880032251173412E-002
  0.31859999999999999          4.1936301915656740E-002
  0.31944999999999996          4.2655352873780125E-002
  0.32029999999999997          4.3027229799558413E-002
  0.32114999999999999          4.3063850829446602E-002
  0.32199999999999995          4.2774635359687008E-002
  0.32284999999999997          4.2140175710244185E-002
  0.32369999999999999          4.1176888349776584E-002
  0.32455000000000001          3.9940114681946672E-002
  0.32539999999999997          3.8458258538724227E-002
  0.32624999999999998          3.6819983775945496E-002
  0.32710000000000000          3.5068135763722433E-002
  0.32794999999999996          3.3275964951485285E-002
  0.32879999999999998          3.1448308608513234E-002
  0.32965000000000000          2.9605141000547740E-002
  0.33049999999999996          2.7745326022810723E-002
  0.33134999999999998          2.5835577932532747E-002
  0.33220000000000000          2.3884515917903984E-002
  0.33304999999999996          2.1881094911921816E-002
  0.33389999999999997          1.9853196177526681E-002
  0.33474999999999999          1.7836871740425506E-002
  0.33559999999999995          1.5876416887455780E-002
  0.33644999999999997          1.4018121415864714E-002
  0.33729999999999999          1.2301419325359692E-002
  0.33815000000000001          1.0730012602036165E-002
  0.33899999999999997          9.2939982276842737E-003
  0.33984999999999999          7.9742460024924081E-003
  0.34070000000000000          6.7400288927627165E-003
  0.34154999999999996          5.5654508656478707E-003
  0.34239999999999998          4.4544621675813249E-003
  0.34325000000000000          3.3805204831605230E-003
  0.34409999999999996          2.3828323743980331E-003
  0.34494999999999998          1.4851227690227612E-003
  0.34580000000000000          7.0914385033132171E-004
  0.34664999999999996          6.4173688535908895E-005