 -0.12000000000000000          0.0000000000000000
 -0.11914999999999999          0.0000000000000000
 -0.11830000000000000          0.0000000000000000
 -0.11745000000000000          0.0000000000000000
 -0.11660000000000000          0.0000000000000000
 -0.11574999999999999          0.0000000000000000
 -0.11490000000000000          0.0000000000000000
 -0.11405000000000000          0.0000000000000000
 -0.11320000000000000          0.0000000000000000
 -0.11234999999999999          0.0000000000000000
 -0.11150000000000000          0.0000000000000000
 -0.11065000000000000          0.0000000000000000
 -0.10979999999999999          0.0000000000000000
 -0.10894999999999999          2.1400148123719007E-038
 -0.10810000000000000          3.9383021299569404E-037
 -0.10725000000000000          3.3853752124517992E-036
 -0.10639999999999999          1.7061359516235445E-035
 -0.10554999999999999          4.8936534432869666E-035
 -0.10470000000000000          2.1827331185497133E-035
 -0.10385000000000000         -5.5460441883691577E-034
 -0.10299999999999999         -3.2607241074147540E-033
 -0.10214999999999999         -1.1014313908774009E-032
 -0.10130000000000000         -2.4505627861878535E-032
 -0.10045000000000000         -2.7697133433532822E-032
  -9.9599999999999994E-002     4.3736170722409145E-032
  -9.8750000000000004E-002     3.3706798432309982E-031
  -9.7900000000000001E-002     1.0502455275808523E-030
  -9.7049999999999997E-002     2.1777764499762598E-030
  -9.6199999999999994E-002     2.8462163836195199E-030
  -9.5349999999999990E-002     2.5846003494999072E-031
  -9.4500000000000001E-002    -1.1039719807591245E-029
  -9.3649999999999997E-002    -3.7624430863325230E-029
  -9.2799999999999994E-002    -8.0263367427947391E-029
  -9.1950000000000004E-002    -1.1900409687079425E-028
  -9.1100000000000000E-002    -9.2552725876377691E-029
  -9.0249999999999997E-002     1.1451476547535099E-028
  -8.9399999999999993E-002     6.4700061029885188E-028
  -8.8549999999999990E-002     1.5751383567772558E-027
  -8.7700000000000000E-002     2.6809518154959787E-027
  -8.6849999999999997E-002     3.1632898445836948E-027
  -8.5999999999999993E-002     1.4120283672617162E-027
  -8.5150000000000003E-002    -4.8321956189642407E-027
  -8.4300000000000000E-002    -1.7490674867480324E-026
  -8.3449999999999996E-002    -3.5964783831583102E-026
  -8.2600000000000007E-002    -5.3871257647113455E-026
  -8.1749999999999989E-002    -5.5823639253840846E-026
  -8.0900000000000000E-002    -1.6828221139562887E-026
  -8.0049999999999996E-002     9.1851008059017325E-026
  -7.9199999999999993E-002     2.8650359414730136E-025
  -7.8350000000000003E-002     5.4337704614010818E-025
  -7.7499999999999999E-002     7.6531276429493854E-025
  -7.6649999999999996E-002     7.5862254199674236E-025
  -7.5800000000000006E-002     2.4715027408165289E-025
  -7.4949999999999989E-002    -1.0446793098020278E-024
  -7.4099999999999999E-002    -3.2185704759662797E-024
  -7.3249999999999996E-002    -5.9520612886464518E-024
  -7.2399999999999992E-002    -8.2445409734029359E-024
  -7.1550000000000002E-002    -8.3059664460290899E-024
  -7.0699999999999999E-002    -3.7891419293886543E-024
  -6.9849999999999995E-002     7.4459048556571613E-024
  -6.9000000000000006E-002     2.5976017126465586E-023
  -6.8149999999999988E-002     4.9079126039256677E-023
  -6.7299999999999999E-002     6.9209726073392041E-023
  -6.6449999999999995E-002     7.3646533997882800E-023
  -6.5599999999999992E-002     4.6433576926764224E-023
  -6.4750000000000002E-002    -2.6549791697193459E-023
  -6.3899999999999998E-002    -1.4945873287738595E-022
  -6.3049999999999995E-002    -3.0686913030521867E-022
  -6.2199999999999998E-002    -4.5604695557472347E-022
  -6.1350000000000002E-002    -5.2588604577922217E-022
  -6.0499999999999998E-002    -4.2746571890595356E-022
  -5.9650000000000002E-002    -7.9266848824793977E-023
  -5.8799999999999998E-002     5.5427903613837827E-022
  -5.7950000000000002E-002     1.4185550901153946E-021
  -5.7099999999999998E-002     2.3331982088173261E-021
  -5.6249999999999994E-002     2.9841383334835537E-021
  -5.5400000000000005E-002     2.9616877683098615E-021
  -5.4550000000000001E-002     1.8553847666605803E-021
  -5.3699999999999998E-002    -5.9918233835570306E-022
  -5.2849999999999994E-002    -4.3473009930859818E-021
  -5.2000000000000005E-002    -8.8628269501987659E-021
  -5.1150000000000001E-002    -1.3078010960721052E-020
  -5.0299999999999997E-002    -1.5456693286700664E-020
  -4.9449999999999994E-002    -1.4252071612493117E-020
  -4.8600000000000004E-002    -7.9495305191357569E-021
  -4.7750000000000001E-002     4.1611360345409203E-021
  -4.6899999999999997E-002     2.1399762697903045E-020
  -4.6049999999999994E-002     4.1260007520722816E-020
  -4.5200000000000004E-002     5.9307007477001009E-020
  -4.4350000000000001E-002     6.9568647761865461E-020
  -4.3499999999999997E-002     6.5508336451092620E-020
  -4.2649999999999993E-002     4.1548080624285163E-020
  -4.1800000000000004E-002    -5.0405117069344228E-021
  -4.0950000000000000E-002    -7.2218369450251899E-020
  -4.0099999999999997E-002    -1.5170830701068384E-019
  -3.9249999999999993E-002    -2.2851338652870268E-019
  -3.8400000000000004E-002    -2.8192925767639082E-019
  -3.7550000000000000E-002    -2.8838368919441372E-019
  -3.6699999999999997E-002    -2.2611760707283232E-019
  -3.5850000000000007E-002    -8.1274331986683340E-020
  -3.5000000000000003E-002     1.4555449053014689E-019
  -3.4150000000000000E-002     4.3375982035544707E-019
  -3.3299999999999996E-002     7.3986424119283554E-019
  -3.2450000000000007E-002     9.9910693978820635E-019
  -3.1600000000000003E-002     1.1327149177901364E-018
  -3.0750000000000000E-002     1.0611478812411803E-018
  -2.9899999999999996E-002     7.2223481353485546E-019
  -2.9050000000000006E-002     9.1553782228353479E-020
  -2.8200000000000003E-002    -7.9899048170393397E-019
  -2.7349999999999999E-002    -1.8492638008917861E-018
  -2.6499999999999996E-002    -2.8904152815046659E-018
  -2.5650000000000006E-002    -3.6992585316511104E-018
  -2.4800000000000003E-002    -4.0285348797552222E-018
  -2.3949999999999999E-002    -3.6508428484961390E-018
  -2.3099999999999996E-002    -2.4105622539285555E-018
  -2.2250000000000006E-002    -2.7518368722279017E-019
  -2.1400000000000002E-002     2.6241803717754521E-018
  -2.0549999999999999E-002     5.9731945659935075E-018
  -1.9699999999999995E-002     9.2836023930714712E-018
  -1.8850000000000006E-002     1.1935602839701889E-017
  -1.8000000000000002E-002     1.3252539532483475E-017
  -1.7149999999999999E-002     1.2601878820679054E-017
  -1.6299999999999995E-002     9.5117120618264129E-018
  -1.5450000000000005E-002     3.7884722933969698E-018
  -1.4600000000000002E-002    -4.3805965667875648E-018
  -1.3749999999999998E-002    -1.4357148798320346E-017
  -1.2899999999999995E-002    -2.5029605124356249E-017
  -1.2050000000000005E-002    -3.4852869995804834E-017
  -1.1200000000000002E-002    -4.1960030692150123E-017
  -1.0349999999999998E-002    -4.4351339042654264E-017
  -9.5000000000000084E-003    -4.0158614829832594E-017
  -8.6500000000000049E-003    -2.7973248286900015E-017
  -7.8000000000000014E-003    -7.2132215693070502E-018
  -6.9499999999999978E-003     2.1511613668570483E-017
  -6.1000000000000082E-003     5.6094089679351726E-017
  -5.2500000000000047E-003     9.2758106914854015E-017
  -4.4000000000000011E-003     1.2610401213590671E-016
  -3.5499999999999976E-003     1.4945001729257007E-016
  -2.7000000000000079E-003     1.5552625125565406E-016
  -1.8500000000000044E-003     1.3753273937834422E-016
  -1.0000000000000009E-003     9.0503226148187420E-017
  -1.4999999999999736E-004     1.2829333062880865E-017
   6.9999999999999230E-004    -9.2290671182990081E-017
   1.5499999999999958E-003    -2.1578941490811596E-016
   2.3999999999999994E-003    -3.4239956046573084E-016
   3.2500000000000029E-003    -4.5137205365994325E-016
   4.0999999999999925E-003    -5.1845356449645778E-016
   4.9499999999999961E-003    -5.1914610912596201E-016
   5.7999999999999996E-003    -4.3302312277320552E-016
   6.6499999999999893E-003    -2.4860006100490065E-016
   7.5000000000000067E-003     3.1993309052882010E-017
   8.3499999999999963E-003     3.8946202200154429E-016
   9.1999999999999860E-003     7.8587295629098689E-016
   1.0050000000000003E-002     1.1660779236807435E-015
   1.0899999999999993E-002     1.4625260785999952E-015
   1.1750000000000010E-002     1.6034727654804671E-015
   1.2600000000000000E-002     1.5240015378217559E-015
   1.3449999999999990E-002     1.1786502375287558E-015
   1.4300000000000007E-002     5.5387989178184347E-016
   1.5149999999999997E-002    -3.2175548529275649E-016
   1.5999999999999986E-002    -1.3719771858200300E-015
   1.6850000000000004E-002    -2.4736856662753295E-015
   1.7699999999999994E-002    -3.4657555943954759E-015
   1.8549999999999983E-002    -4.1660779543216928E-015
   1.9400000000000001E-002    -4.3958926560570997E-015
   2.0249999999999990E-002    -4.0090140642771952E-015
   2.1100000000000008E-002    -2.9222055976752879E-015
   2.1949999999999997E-002    -1.1419751148841544E-015
   2.2799999999999987E-002     1.2173184747795458E-015
   2.3650000000000004E-002     3.9287174792160507E-015
   2.4499999999999994E-002     6.6645900580393340E-015
   2.5349999999999984E-002     9.0263685921962103E-015
   2.6200000000000001E-002     1.0590540914537003E-014
   2.7049999999999991E-002     1.0966495331292367E-014
   2.7900000000000008E-002     9.8593445921742219E-015
   2.8749999999999998E-002     7.1291932693705004E-015
   2.9599999999999987E-002     2.8378168441009855E-015
   3.0450000000000005E-002    -2.7254098073288044E-015
   3.1299999999999994E-002    -9.0444780142668210E-015
   3.2149999999999984E-002    -1.5407797924106702E-014
   3.3000000000000002E-002    -2.0969068535923134E-014
   3.3849999999999991E-002    -2.4834132377866034E-014
   3.4700000000000009E-002    -2.6166748659870361E-014
   3.5549999999999998E-002    -2.4303539384977752E-014
   3.6399999999999988E-002    -1.8866418633869781E-014
   3.7250000000000005E-002    -9.8596768958898941E-015
   3.8099999999999995E-002     2.2614149341682145E-015
   3.8949999999999985E-002     1.6562823633739067E-014
   3.9800000000000002E-002     3.1655016276032354E-014
   4.0649999999999992E-002     4.5774130418877200E-014
   4.1500000000000009E-002     5.6923034243516523E-014
   4.2349999999999999E-002     6.3068283576841464E-014
   4.3199999999999988E-002     6.2381980706280931E-014
   4.4050000000000006E-002     5.3510214101515395E-014
   4.4899999999999995E-002     3.5842391430506305E-014
   4.5749999999999985E-002     9.7496748151309655E-015
   4.6600000000000003E-002    -2.3243543944812086E-014
   4.7449999999999992E-002    -6.0392636234345698E-014
   4.8299999999999982E-002    -9.7805094713049834E-014
   4.9149999999999999E-002    -1.3067923946202735E-013
   4.9999999999999989E-002    -1.5372182551962838E-013
   5.0850000000000006E-002    -1.6173584332776403E-013
   5.1699999999999996E-002    -1.5034163365440692E-013
   5.2549999999999986E-002    -1.1676239546789113E-013
   5.3400000000000003E-002    -6.0575238874672114E-014
   5.4249999999999993E-002     1.5693903502911460E-014
   5.5099999999999982E-002     1.0626075682087055E-013
   5.5950000000000000E-002     2.0217415826981866E-013
   5.6799999999999989E-002     2.9188546791075781E-013
   5.7650000000000007E-002     3.6231042111473604E-013
   5.8499999999999996E-002     4.0031990885574515E-013
   5.9349999999999986E-002     3.9451578612340729E-013
   6.0200000000000004E-002     3.3708010224496512E-013
   6.1049999999999993E-002     2.2544407860145243E-013
   6.1899999999999983E-002     6.3517547586613299E-014
   6.2750000000000000E-002    -1.3774416003691862E-013
   6.3599999999999990E-002    -3.6058705113750799E-013
   6.4450000000000007E-002    -5.8157568867977540E-013
   6.5299999999999997E-002    -7.7353683453782235E-013
   6.6149999999999987E-002    -9.0819120332886607E-013
   6.7000000000000004E-002    -9.5925920366687634E-013
   6.7849999999999994E-002    -9.0576973621787584E-013
   6.8699999999999983E-002    -7.3526626817265572E-013
   6.9550000000000001E-002    -4.4658393876074599E-013
   7.0399999999999990E-002    -5.1862722748739561E-014
   7.1249999999999980E-002     4.2253266475324629E-013
   7.2099999999999997E-002     9.3648224104979081E-013
   7.2949999999999987E-002     1.4381929989972376E-012
   7.3800000000000004E-002     1.8679893955394916E-012
   7.4649999999999994E-002     2.1637273019839658E-012
   7.5499999999999984E-002     2.2675160526024154E-012
   7.6350000000000001E-002     2.1331821006802611E-012
   7.7199999999999991E-002     1.7336779396034088E-012
   7.8049999999999981E-002     1.0674929336705843E-012
   7.8899999999999998E-002     1.6309364924442155E-013
   7.9749999999999988E-002    -9.1946333239071408E-013
   8.0600000000000005E-002    -2.0903583660015269E-012
   8.1449999999999995E-002    -3.2355241334248138E-012
   8.2299999999999984E-002    -4.2256687935276536E-012
   8.3150000000000002E-002    -4.9281954692493012E-012
   8.3999999999999991E-002    -5.2210347011278094E-012
   8.4849999999999981E-002    -5.0071459955884675E-012
   8.5699999999999998E-002    -4.2282853439935977E-012
   8.6549999999999988E-002    -2.8765918060609254E-012
   8.7400000000000005E-002    -1.0026081150012839E-012
   8.8249999999999995E-002     1.2814821982852794E-012
   8.9099999999999985E-002     3.8043379486610409E-012
   8.9950000000000002E-002     6.3442362469323154E-012
   9.0799999999999992E-002     8.6442206690078613E-012
   9.1649999999999981E-002     1.0433093799683005E-011
   9.2499999999999999E-002     1.1451017324270926E-011
   9.3349999999999989E-002     1.1477776368407011E-011
   9.4200000000000006E-002     1.0361114434265896E-011
   9.5049999999999996E-002     8.0421125481684333E-012
   9.5899999999999985E-002     4.5744492604055514E-012
   9.6750000000000003E-002     1.3459994572126038E-013
   9.7599999999999992E-002    -4.9793132256753885E-012
   9.8449999999999982E-002    -1.0361347598104950E-011
   9.9299999999999999E-002    -1.5524279815534653E-011
  0.10014999999999999         -1.9937560237337542E-011
  0.10099999999999998         -2.3074071536210244E-011
  0.10185000000000000         -2.4461963300531610E-011
  0.10269999999999999         -2.3737009650837092E-011
  0.10355000000000000         -2.0690481557637104E-011
  0.10439999999999999         -1.5307472635669668E-011
  0.10524999999999998         -7.7910580352916089E-012
  0.10610000000000000          1.4315464751392655E-012
  0.10694999999999999          1.1723314440616154E-011
  0.10779999999999998          2.2273111419872181E-011
  0.10865000000000000          3.2151699625518211E-011
  0.10949999999999999          4.0384878420049610E-011
  0.11035000000000000          4.6038590108087087E-011
  0.11119999999999999          4.8308992732186569E-011
  0.11204999999999998          4.6609409194642910E-011
  0.11290000000000000          4.0645583292513088E-011
  0.11374999999999999          3.0471056827203129E-011
  0.11459999999999998          1.6515850728971371E-011
  0.11545000000000000         -4.1638859500324507E-013
  0.11629999999999999         -1.9184842106277301E-011
  0.11715000000000000         -3.8380797050689624E-011
  0.11799999999999999         -5.6425949332262342E-011
  0.11884999999999998         -7.1693208704797487E-011
  0.11970000000000000         -8.2641176725469107E-011
  0.12054999999999999         -8.7951734584019249E-011
  0.12139999999999998         -8.6659270923689009E-011
  0.12225000000000000         -7.8259930578616892E-011
  0.12309999999999999         -6.2790260658275998E-011
  0.12395000000000000         -4.0866126200816779E-011
  0.12479999999999999         -1.3675914822455353E-011
  0.12564999999999998          1.7074698951238883E-011
  0.12650000000000000          4.9264770167156665E-011
  0.12734999999999999          8.0501041385362722E-011
  0.12819999999999998          1.0829209382314200E-010
  0.12905000000000000          1.3024031411001809E-010
  0.12989999999999999          1.4423658827878495E-010
  0.13074999999999998          1.4864159404839011E-010
  0.13159999999999999          1.4243852073504060E-010
  0.13245000000000001          1.2534407002177278E-010
  0.13329999999999997          9.7867970965547144E-011
  0.13414999999999999          6.1314837981027780E-011
  0.13500000000000001          1.7727003156413761E-011
  0.13584999999999997         -3.0229071783456513E-011
  0.13669999999999999         -7.9426015733890690E-011
  0.13755000000000001         -1.2647792838588030E-010
  0.13839999999999997         -1.6796882002700893E-010
  0.13924999999999998         -2.0069163844715655E-010
  0.14010000000000000         -2.2188131822744795E-010
  0.14094999999999996         -2.2942546727646729E-010
  0.14179999999999998         -2.2203714140844140E-010
  0.14265000000000000         -1.9937681227140102E-010
  0.14350000000000002         -1.6211367912102705E-010
  0.14434999999999998         -1.1192057082391567E-010
  0.14520000000000000         -5.1400996365627355E-011
  0.14605000000000001          1.6048325259886685E-011
  0.14689999999999998          8.6432033618661534E-011
  0.14774999999999999          1.5539633159414203E-010
  0.14860000000000001          2.1850062014750532E-010
  0.14944999999999997          2.7150375756766785E-010
  0.15029999999999999          3.1064680341744854E-010
  0.15115000000000001          3.3291344047042704E-010
  0.15199999999999997          3.3625007634170828E-010
  0.15284999999999999          3.1972987510242559E-010
  0.15370000000000000          2.8364801233846640E-010
  0.15454999999999997          2.2953961767710146E-010
  0.15539999999999998          1.6011636793585259E-010
  0.15625000000000000          7.9124532549589616E-011
  0.15709999999999996         -8.8675866200739676E-012
  0.15794999999999998         -9.8739462057428668E-011
  0.15880000000000000         -1.8512867694721961E-010
  0.15965000000000001         -2.6276193896593225E-010
  0.16049999999999998         -3.2678602457470094E-010
  0.16134999999999999         -3.7307752020678759E-010
  0.16220000000000001         -3.9851092124522623E-010
  0.16304999999999997         -4.0116579910293491E-010
  0.16389999999999999         -3.8045723038743078E-010
  0.16475000000000001         -3.3717966662731007E-010
  0.16559999999999997         -2.7346220286021642E-010
  0.16644999999999999         -1.9263883510294278E-010
  0.16730000000000000         -9.9041397063239922E-011
  0.16814999999999997          2.2708402007254852E-012
  0.16899999999999998          1.0582035558599112E-010
  0.16985000000000000          2.0602947526081367E-010
  0.17069999999999996          2.9751694165568755E-010
  0.17154999999999998          3.7535007647017951E-010
  0.17240000000000000          4.3523261329504057E-010
  0.17325000000000002          4.7361712941452125E-010
  0.17409999999999998          4.8773662074600137E-010
  0.17494999999999999          4.7556049224127820E-010
  0.17580000000000001          4.3568944697561479E-010
  0.17664999999999997          3.6720357975736989E-010
  0.17749999999999999          2.6947646819465265E-010
  0.17835000000000001          1.4198087541180683E-010
  0.17919999999999997         -1.5891536118435608E-011
  0.18004999999999999         -2.0497079116976322E-010
  0.18090000000000001         -4.2640744619227980E-010
  0.18174999999999997         -6.8173412379861441E-010
  0.18259999999999998         -9.7288563253317332E-010
  0.18345000000000000         -1.3021825117129156E-009
  0.18429999999999996         -1.6722844279315323E-009
  0.18514999999999998         -2.0861538382311272E-009
  0.18600000000000000         -2.5470521894275387E-009
  0.18684999999999996         -3.0586021464511760E-009
  0.18769999999999998         -3.6249121906886408E-009
  0.18855000000000000         -4.2507964433543192E-009
  0.18940000000000001         -4.9420850380254674E-009
  0.19024999999999997         -5.7060073130738797E-009
  0.19109999999999999         -6.5516174095092652E-009
  0.19195000000000001         -7.4902255756562734E-009
  0.19279999999999997         -8.5358168914319927E-009
  0.19364999999999999         -9.7054410542025662E-009
  0.19450000000000001         -1.1019523851009926E-008
  0.19534999999999997         -1.2502021548410233E-008
  0.19619999999999999         -1.4180479955907732E-008
  0.19705000000000000         -1.6086060920608822E-008
  0.19789999999999996         -1.8253605390431174E-008
  0.19874999999999998         -2.0721629071694327E-008
  0.19960000000000000         -2.3532182136666831E-008
  0.20044999999999996         -2.6730449469525116E-008
  0.20129999999999998         -3.0364445853118289E-008
  0.20215000000000000         -3.4484881358752142E-008
  0.20300000000000001         -3.9145283800117055E-008
  0.20384999999999998         -4.4402064153568367E-008
  0.20469999999999999         -5.0314339655551973E-008
  0.20555000000000001         -5.6943763286681779E-008
  0.20639999999999997         -6.4354605117849195E-008
  0.20724999999999999         -7.2613815722580787E-008
  0.20810000000000001         -8.1791138733121752E-008
  0.20894999999999997         -9.1958793939127981E-008
  0.20979999999999999         -1.0319082008840821E-007
  0.21065000000000000         -1.1556236838588060E-007
  0.21149999999999997         -1.2914844201756156E-007
  0.21234999999999998         -1.4402225461173409E-007
  0.21320000000000000         -1.6025274011239445E-007
  0.21404999999999996         -1.7790259174272746E-007
  0.21489999999999998         -1.9702634967604479E-007
  0.21575000000000000         -2.1766825531559848E-007
  0.21659999999999996         -2.3985871585527318E-007
  0.21744999999999998         -2.6361000757535781E-007
  0.21829999999999999         -2.8891286080495866E-007
  0.21915000000000001         -3.1573176156666008E-007
  0.21999999999999997         -3.4400006516581081E-007
  0.22084999999999999         -3.7361492073679116E-007
  0.22170000000000001         -4.0443072016519402E-007
  0.22254999999999997         -4.3625236434572958E-007
  0.22339999999999999         -4.6882727037308185E-007
  0.22425000000000000         -5.0183650928171489E-007
  0.22509999999999997         -5.3488579945237806E-007
  0.22594999999999998         -5.6749740542013022E-007
  0.22680000000000000         -5.9910083998253470E-007
  0.22764999999999996         -6.2902181362885469E-007
  0.22849999999999998         -6.5646987734755496E-007
  0.22935000000000000         -6.8052419747257142E-007
  0.23019999999999996         -7.0012479102560148E-007
  0.23104999999999998         -7.1406327407339693E-007
  0.23190000000000000         -7.2096935037615606E-007
  0.23275000000000001         -7.1929567326554093E-007
  0.23359999999999997         -7.0730395696870885E-007
  0.23444999999999999         -6.8305777057352653E-007
  0.23530000000000001         -6.4441811124739511E-007
  0.23614999999999997         -5.8903663203944029E-007
  0.23699999999999999         -5.1434237539492781E-007
  0.23785000000000001         -4.1753229456611454E-007
  0.23869999999999997         -2.9556677445207688E-007
  0.23954999999999999         -1.4517355107186501E-007
  0.24040000000000000          3.7152657841303975E-008
  0.24124999999999996          2.5514983943249667E-007
  0.24209999999999998          5.1278774669690864E-007
  0.24295000000000000          8.1425563464409463E-007
  0.24379999999999996          1.1639450014919255E-006
  0.24464999999999998          1.5664339050570608E-006
  0.24550000000000000          2.0264595956301375E-006
  0.24634999999999996          2.5488901141115371E-006
  0.24719999999999998          3.1386877380028506E-006
  0.24804999999999999          3.8008699498597491E-006
  0.24890000000000001          4.5404650796980551E-006
  0.24974999999999997          5.3624610503095353E-006
  0.25059999999999999          6.2717392615040816E-006
  0.25145000000000001          7.2729969725168621E-006
  0.25229999999999997          8.3706771381770519E-006
  0.25314999999999999          9.5688920990572647E-006
  0.25400000000000000          1.0871337276488603E-005
  0.25484999999999997          1.2281197675760019E-005
  0.25569999999999998          1.3801040731234865E-005
  0.25655000000000000          1.5432727132489952E-005
  0.25739999999999996          1.7177303139576688E-005
  0.25824999999999998          1.9034901057248408E-005
  0.25910000000000000          2.1004613257228362E-005
  0.25994999999999996          2.3084396533796820E-005
  0.26079999999999998          2.5270968119325694E-005
  0.26164999999999999          2.7559706168940965E-005
  0.26249999999999996          2.9944541636146155E-005
  0.26334999999999997          3.2417832529625762E-005
  0.26419999999999999          3.4970276987642375E-005
  0.26505000000000001          3.7590855711375555E-005
  0.26589999999999997          4.0266779888953300E-005
  0.26674999999999999          4.2983430264215002E-005
  0.26760000000000000          4.5724302961095682E-005
  0.26844999999999997          4.8471000198609382E-005
  0.26929999999999998          5.1203251462088590E-005
  0.27015000000000000          5.3898958629199253E-005
  0.27099999999999996          5.6534237194520669E-005
  0.27184999999999998          5.9083492539599279E-005
  0.27270000000000000          6.1519503174965729E-005
  0.27354999999999996          6.3813610999170333E-005
  0.27439999999999998          6.5935862072801732E-005
  0.27524999999999999          6.7855184038081968E-005
  0.27609999999999996          6.9539628877281182E-005
  0.27694999999999997          7.0956615108915290E-005
  0.27779999999999999          7.2073256452281746E-005
  0.27865000000000001          7.2856666067036088E-005
  0.27949999999999997          7.3274251983834816E-005
  0.28034999999999999          7.3294072854230617E-005
  0.28120000000000001          7.2885234342650717E-005
  0.28204999999999997          7.2018256265162100E-005
  0.28289999999999998          7.0665509144047617E-005
  0.28375000000000000          6.8801614307369670E-005
  0.28459999999999996          6.6403800097915256E-005
  0.28544999999999998          6.3452333543992829E-005
  0.28630000000000000          5.9930928619514086E-005
  0.28714999999999996          5.5827155832545590E-005
  0.28799999999999998          5.1132810765176564E-005
  0.28885000000000000          4.5844228690812669E-005
  0.28969999999999996          3.9962603830029890E-005
  0.29054999999999997          3.3494247072135098E-005
  0.29139999999999999          2.6450836763725711E-005
  0.29224999999999995          1.8849571436175338E-005
  0.29309999999999997          1.0713316413378948E-005
  0.29394999999999999          2.0706661395104200E-006
  0.29480000000000001         -7.0440520632173464E-006
  0.29564999999999997         -1.6590872062234649E-005
  0.29649999999999999         -2.6524310637382921E-005
  0.29735000000000000         -3.6793520048893121E-005
  0.29819999999999997         -4.7342526299827106E-005
  0.29904999999999998         -5.8110601555122946E-005
  0.29990000000000000         -6.9032691475524801E-005
  0.30074999999999996         -8.0039858419634363E-005
  0.30159999999999998         -9.1059794891029420E-005
  0.30245000000000000         -1.0201736212795475E-004
  0.30329999999999996         -1.1283526501151433E-004
  0.30414999999999998         -1.2343473290727150E-004
  0.30499999999999999         -1.3373619452631283E-004
  0.30584999999999996         -1.4366001956844467E-004
  0.30669999999999997         -1.5312728475029490E-004
  0.30754999999999999         -1.6206057074462377E-004
  0.30840000000000001         -1.7038469917284352E-004
  0.30924999999999997         -1.7802757603190499E-004
  0.31009999999999999         -1.8492087230931699E-004
  0.31095000000000000         -1.9100083684276520E-004
  0.31179999999999997         -1.9620899008319993E-004
  0.31264999999999998         -2.0049272090341623E-004
  0.31350000000000000         -2.0380591377873008E-004
  0.31434999999999996         -2.0610944690915332E-004
  0.31519999999999998         -2.0737170891914561E-004
  0.31605000000000000         -2.0756904795951055E-004
  0.31689999999999996         -2.0668602152352453E-004
  0.31774999999999998         -2.0471561262840044E-004
  0.31859999999999999         -2.0165937942424428E-004
  0.31944999999999996         -1.9752756385489647E-004
  0.32029999999999997         -1.9233908274740802E-004
  0.32114999999999999         -1.8612135658116474E-004
  0.32199999999999995         -1.7891001046372576E-004
  0.32284999999999997         -1.7074861210152425E-004
  0.32369999999999999         -1.6168824677802439E-004
  0.32455000000000001         -1.5178711052202308E-004
  0.32539999999999997         -1.4110995023055168E-004
  0.32624999999999998         -1.2972739864456099E-004
  0.32710000000000000         -1.1771528480561282E-004
  0.32794999999999996         -1.0515395532342174E-004
  0.32879999999999998         -9.2127536269916082E-005
  0.32965000000000000         -7.8723123115123644E-005
  0.33049999999999996         -6.5029900376785258E-005
  0.33134999999999998         -5.1138304137789657E-005
  0.33220000000000000         -3.7139214739157403E-005
  0.33304999999999996         -2.3123127558832067E-005
  0.33389999999999997         -9.1793398500992425E-006
  0.33474999999999999          4.6048940773081423E-006
  0.33559999999999995          1.8145092950631817E-005
  0.33644999999999997          3.1360234025429309E-005
  0.33729999999999999          4.4173412756045189E-005
  0.33815000000000001          5.6512450450860399E-005
  0.33899999999999997          6.8310448329461244E-005
  0.33984999999999999          7.9506239953614183E-005
  0.34070000000000000          9.0044824176604616E-005
  0.34154999999999996          9.9877673122296840E-005
  0.34239999999999998          1.0896297951816434E-004
  0.34325000000000000          1.1726583279333972E-004