 -0.12000000000000000          0.0000000000000000
 -0.11914999999999999          0.0000000000000000
 -0.11830000000000000          0.0000000000000000
 -0.11745000000000000          0.0000000000000000
 -0.11660000000000000          0.0000000000000000
 -0.11574999999999999          0.0000000000000000
 -0.11490000000000000          0.0000000000000000
 -0.11405000000000000          0.0000000000000000
 -0.11320000000000000          0.0000000000000000
 -0.11234999999999999          0.0000000000000000
 -0.11150000000000000          0.0000000000000000
 -0.11065000000000000          0.0000000000000000
 -0.10979999999999999          2.9619580686526026E-032
 -0.10894999999999999          4.8899354288642286E-031
 -0.10810000000000000          3.6217564050375394E-030
 -0.10725000000000000          1.4788326850604223E-029
 -0.10639999999999999          2.5189199084098440E-029
 -0.10554999999999999         -8.1639256062209071E-029
 -0.10470000000000000         -7.6030797401606691E-028
 -0.10385000000000000         -2.9476649420894993E-027
 -0.10299999999999999         -6.9861172984562137E-027
 -0.10214999999999999         -7.9414852041370820E-027
 -0.10130000000000000          1.4255790029350482E-026
 -0.10045000000000000          1.0328692568961569E-025
  -9.9599999999999994E-002     3.0712593800469383E-025
  -9.8750000000000004E-002     5.8110136629486020E-025
  -9.7900000000000001E-002     5.7349938466994968E-025
  -9.7049999999999997E-002    -6.3542041239336922E-025
  -9.6199999999999994E-002    -4.5068456999352545E-024
  -9.5349999999999990E-002    -1.2055949824886913E-023
  -9.4500000000000001E-002    -2.1157824166487637E-023
  -9.3649999999999997E-002    -2.2220384714276329E-023
  -9.2799999999999994E-002     5.3954533750970553E-024
  -9.1950000000000004E-002     9.0231256208849099E-023
  -9.1100000000000000E-002     2.4998764025059527E-022
  -9.0249999999999997E-002     4.5040608187785168E-022
  -8.9399999999999993E-002     5.4761492631999776E-022
  -8.8549999999999990E-002     2.4591788456477638E-022
  -8.7700000000000000E-002    -8.6294173276639636E-022
  -8.6849999999999997E-002    -3.0914874064804315E-021
  -8.5999999999999993E-002    -6.2186330602528080E-021
  -8.5150000000000003E-002    -8.8778608013838515E-021
  -8.4300000000000000E-002    -8.0493155735028289E-021
  -8.3449999999999996E-002     7.8565377974634357E-022
  -8.2600000000000007E-002     2.2081786854424359E-020
  -8.1749999999999989E-002     5.6675158338576594E-020
  -8.0900000000000000E-002     9.6448177912746839E-020
  -8.0049999999999996E-002     1.1899424638968824E-019
  -7.9199999999999993E-002     8.6118864045272619E-020
  -7.8350000000000003E-002    -4.8356727358559388E-020
  -7.7499999999999999E-002    -3.1643737812228124E-019
  -7.6649999999999996E-002    -6.9866035110766420E-019
  -7.5800000000000006E-002    -1.0800793048259616E-018
  -7.4949999999999989E-002    -1.2208460647081700E-018
  -7.4099999999999999E-002    -7.7453276199436592E-019
  -7.3249999999999996E-002     6.1039605789626808E-019
  -7.2399999999999992E-002     3.0879642287789100E-018
  -7.1550000000000002E-002     6.3366777652739757E-018
  -7.0699999999999999E-002     9.2985778849551625E-018
  -6.9849999999999995E-002     1.0096974705213638E-017
  -6.9000000000000006E-002     6.3294118885149320E-018
  -6.8149999999999988E-002    -4.1142016681754700E-018
  -6.7299999999999999E-002    -2.1721506426966062E-017
  -6.6449999999999995E-002    -4.3805910145330692E-017
  -6.5599999999999992E-002    -6.3350044771804555E-017
  -6.4750000000000002E-002    -6.9101136253098334E-017
  -6.3899999999999998E-002    -4.7752887213472010E-017
  -6.3049999999999995E-002     1.1394576060007233E-017
  -6.2199999999999998E-002     1.0981137858330359E-016
  -6.1350000000000002E-002     2.3288497075226544E-016
  -6.0499999999999998E-002     3.4571430502877554E-016
  -5.9650000000000002E-002     3.9494392117980656E-016
  -5.8799999999999998E-002     3.1934965624313140E-016
  -5.7950000000000002E-002     6.9712221249622897E-017
  -5.7099999999999998E-002    -3.6498690742758129E-016
  -5.6249999999999994E-002    -9.3202832900684501E-016
  -5.5400000000000005E-002    -1.5001418703770430E-015
  -5.4550000000000001E-002    -1.8661097093445314E-015
  -5.3699999999999998E-002    -1.7903826668287721E-015
  -5.2849999999999994E-002    -1.0621550890067941E-015
  -5.2000000000000005E-002     4.1569758599890683E-016
  -5.1150000000000001E-002     2.5418715776260514E-015
  -5.0299999999999997E-002     4.9595896498481788E-015
  -4.9449999999999994E-002     7.0559451317339035E-015
  -4.8600000000000004E-002     8.0389257816765336E-015
  -4.7750000000000001E-002     7.0975196691044759E-015
  -4.6899999999999997E-002     3.6285423542485815E-015
  -4.6049999999999994E-002    -2.5096855204343547E-015
  -4.5200000000000004E-002    -1.0775583559305473E-014
  -4.4350000000000001E-002    -1.9822765073286218E-014
  -4.3499999999999997E-002    -2.7543184833533142E-014
  -4.2649999999999993E-002    -3.1319492818636721E-014
  -4.1800000000000004E-002    -2.8497241852151427E-014
  -4.0950000000000000E-002    -1.7040948458546349E-014
  -4.0099999999999997E-002     3.7160624711900813E-015
  -3.9249999999999993E-002     3.2372607917408392E-014
  -3.8400000000000004E-002     6.4998530278665835E-014
  -3.7550000000000000E-002     9.5114878054298120E-014
  -3.6699999999999997E-002     1.1429371411268421E-013
  -3.5850000000000007E-002     1.1347476103208505E-013
  -3.5000000000000003E-002     8.4950171098312965E-014
  -3.4150000000000000E-002     2.4773840644935456E-014
  -3.3299999999999996E-002    -6.4860509231300345E-014
  -3.2450000000000007E-002    -1.7388896727724636E-013
  -3.1600000000000003E-002    -2.8397916994201446E-013
  -3.0750000000000000E-002    -3.7002905488393121E-013
  -2.9899999999999996E-002    -4.0383108779362360E-013
  -2.9050000000000006E-002    -3.5967233944334231E-013
  -2.8200000000000003E-002    -2.2107810711342275E-013
  -2.7349999999999999E-002     1.2625313441004230E-014
  -2.6499999999999996E-002     3.2153390056645385E-013
  -2.5650000000000006E-002     6.6376014987639322E-013
  -2.4800000000000003E-002     9.7850264043987586E-013
  -2.3949999999999999E-002     1.1938947388690841E-012
  -2.3099999999999996E-002     1.2388902526477081E-012
  -2.2250000000000006E-002     1.0574189744352390E-012
  -2.1400000000000002E-002     6.2235288374441374E-013
  -2.0549999999999999E-002    -5.3434266507103678E-014
  -1.9699999999999995E-002    -9.1129074212939270E-013
  -1.8850000000000006E-002    -1.8478388305418929E-012
  -1.8000000000000002E-002    -2.7233178885690123E-012
  -1.7149999999999999E-002    -3.3764768308082821E-012
  -1.6299999999999995E-002    -3.6443935698128340E-012
  -1.5450000000000005E-002    -3.3852296645259466E-012
  -1.4600000000000002E-002    -2.5017040519622752E-012
  -1.3749999999999998E-002    -9.6319285020341665E-013
  -1.2899999999999995E-002     1.1753514137511776E-012
  -1.2050000000000005E-002     3.7593173991980681E-012
  -1.1200000000000002E-002     6.5271290060226900E-012
  -1.0349999999999998E-002     9.1128479991782178E-012
  -9.5000000000000084E-003     1.1062469895405276E-011
  -8.6500000000000049E-003     1.1868040501571480E-011
  -7.8000000000000014E-003     1.1023967709979140E-011
  -6.9499999999999978E-003     8.1074578303819152E-012
  -6.1000000000000082E-003     2.8810190928285582E-012
  -5.2500000000000047E-003    -4.5925269868396747E-012
  -4.4000000000000011E-003    -1.3840692621002251E-011
  -3.5499999999999976E-003    -2.3902802316101298E-011
  -2.7000000000000079E-003    -3.3314518279393380E-011
  -1.8500000000000044E-003    -4.0188254096184845E-011
  -1.0000000000000009E-003    -4.2414362275185047E-011
  -1.4999999999999736E-004    -3.7987700864740486E-011
   6.9999999999999230E-004    -2.5437703610145555E-011
   1.5499999999999958E-003    -4.3064379961867665E-012
   2.3999999999999994E-003     2.4411980234935846E-011
   3.2500000000000029E-003     5.7980611493842103E-011
   4.0999999999999925E-003     9.1887846594256545E-011
   4.9499999999999961E-003     1.2015983861020971E-010
   5.7999999999999996E-003     1.3605546959807940E-010
   6.6499999999999893E-003     1.3310771875985137E-010
   7.5000000000000067E-003     1.0640184603009822E-010
   8.3499999999999963E-003     5.3899251865625101E-011
   9.1999999999999860E-003    -2.2430318199683219E-011
   1.0050000000000003E-002    -1.1592645633774651E-010
   1.0899999999999993E-002    -2.1522688790525143E-010
   1.1750000000000010E-002    -3.0507674964735434E-010
   1.2600000000000000E-002    -3.6800006600740848E-010
   1.3449999999999990E-002    -3.8673926413988528E-010
   1.4300000000000007E-002    -3.4721792965134244E-010
   1.5149999999999997E-002    -2.4164215401198972E-010
   1.5999999999999986E-002    -7.1261901992721632E-011
   1.6850000000000004E-002     1.5174903207212568E-010
   1.7699999999999994E-002     4.0380262843443229E-010
   1.8549999999999983E-002     6.5122144617416414E-010
   1.9400000000000001E-002     8.5355501055060647E-010
   2.0249999999999990E-002     9.6876122471550720E-010
   2.1100000000000008E-002     9.5975350647520582E-010
   2.1949999999999997E-002     8.0147135766184598E-010
   2.2799999999999987E-002     4.8734316526681975E-010
   2.3650000000000004E-002     3.3873333039542839E-011
   2.4499999999999994E-002    -5.1777704082653913E-010
   2.5349999999999984E-002    -1.1039526999579281E-009
   2.6200000000000001E-002    -1.6445929869032057E-009
   2.7049999999999991E-002    -2.0527399594501093E-009
   2.7900000000000008E-002    -2.2463677701065001E-009
   2.8749999999999998E-002    -2.1608651295409109E-009
   2.9599999999999987E-002    -1.7603459546460659E-009
   3.0450000000000005E-002    -1.0461478919560196E-009
   3.1299999999999994E-002    -6.1248087218117817E-011
   3.2149999999999984E-002     1.1101037042387035E-009
   3.3000000000000002E-002     2.3476910781139550E-009
   3.3849999999999991E-002     3.5051162412526101E-009
   3.4700000000000009E-002     4.4232885798293036E-009
   3.5549999999999998E-002     4.9465902893460292E-009
   3.6399999999999988E-002     4.9406505066722229E-009
   3.7250000000000005E-002     4.3105201600769580E-009
   3.8099999999999995E-002     3.0177383179736068E-009
   3.8949999999999985E-002     1.0945101047006424E-009
   3.9800000000000002E-002    -1.3468209141526713E-009
   4.0649999999999992E-002    -4.1110174619721334E-009
   4.1500000000000009E-002    -6.9254800465060561E-009
   4.2349999999999999E-002    -9.4554346810349345E-009
   4.3199999999999988E-002    -1.1329358284146362E-008
   4.4050000000000006E-002    -1.2174471603644227E-008
   4.4899999999999995E-002    -1.1660751406082374E-008
   4.5749999999999985E-002    -9.5508663432096133E-009
   4.6600000000000003E-002    -5.7520703677730004E-009
   4.7449999999999992E-002    -3.6452788513413372E-010
   4.8299999999999982E-002     6.2814018166764641E-009
   4.9149999999999999E-002     1.3607697040367183E-008
   4.9999999999999989E-002     2.0800771701548648E-008
   5.0850000000000006E-002     2.6862619621347545E-008
   5.1699999999999996E-002     3.0705917190600029E-008
   5.2549999999999986E-002     3.1291223658293248E-008
   5.3400000000000003E-002     2.7795139347126608E-008
   5.4249999999999993E-002     1.9789231529102390E-008
   5.5099999999999982E-002     7.4000665615356464E-009
   5.5950000000000000E-002    -8.5842187798045106E-009
   5.6799999999999989E-002    -2.6693897454089573E-008
   5.7650000000000007E-002    -4.4865692099159812E-008
   5.8499999999999996E-002    -6.0641694825633305E-008
   5.9349999999999986E-002    -7.1462348323160937E-008
   6.0200000000000004E-002    -7.5017767767735144E-008
   6.1049999999999993E-002    -6.9606247911212373E-008
   6.1899999999999983E-002    -5.4443174683209432E-008
   6.2750000000000000E-002    -2.9870142721936889E-008
   6.3599999999999990E-002     2.5664138731421809E-009
   6.4450000000000007E-002     4.0176442991193068E-008
   6.5299999999999997E-002     7.9317341073483894E-008
   6.6149999999999987E-002     1.1569049998631552E-007
   6.7000000000000004E-002     1.4471625953415705E-007
   6.7849999999999994E-002     1.6195707134101045E-007
   6.8699999999999983E-002     1.6356932804582483E-007
   6.9550000000000001E-002     1.4676664764210997E-007
   7.0399999999999990E-002     1.1027562506364388E-007
   7.1249999999999980E-002     5.4746278085681381E-008
   7.2099999999999997E-002    -1.6939541526703226E-008
   7.2949999999999987E-002    -9.9535410028104741E-008
   7.3800000000000004E-002    -1.8554811221061373E-007
   7.4649999999999994E-002    -2.6567354001559748E-007
   7.5499999999999984E-002    -3.2958158896790895E-007
   7.6350000000000001E-002    -3.6701755338032656E-007
   7.7199999999999991E-002    -3.6910849300023927E-007
   7.8049999999999981E-002    -3.2970822960925893E-007
   7.8899999999999998E-002    -2.4658506375504636E-007
   7.9749999999999988E-002    -1.2226710412046873E-007
   8.0600000000000005E-002     3.5611508394523373E-008
   8.1449999999999995E-002     2.1456204783176994E-007
   8.2299999999999984E-002     3.9808711106545880E-007
   8.3150000000000002E-002     5.6704128690165766E-007
   8.3999999999999991E-002     7.0135335186830274E-007
   8.4849999999999981E-002     7.8196825146735764E-007
   8.5699999999999998E-002     7.9284815113027443E-007
   8.6549999999999988E-002     7.2289309690046086E-007
   8.7400000000000005E-002     5.6762160367640514E-007
   8.8249999999999995E-002     3.3047127608531929E-007
   8.9099999999999985E-002     2.3588057202539746E-008
   8.9950000000000002E-002    -3.3206027942706007E-007
   9.0799999999999992E-002    -7.0742110472145491E-007
   9.1649999999999981E-002    -1.0670578845034055E-006
   9.2499999999999999E-002    -1.3718536036208365E-006
   9.3349999999999989E-002    -1.5825902694883323E-006
   9.4200000000000006E-002    -1.6641377229516605E-006
   9.5049999999999996E-002    -1.5898431920501367E-006
   9.5899999999999985E-002    -1.3455856627306489E-006
   9.6750000000000003E-002    -9.3296073038381081E-007
   9.7599999999999992E-002    -3.7110241437122013E-007
   9.8449999999999982E-002     3.0325546878551125E-007
   9.9299999999999999E-002     1.0375803409407727E-006
  0.10014999999999999          1.7671548559007950E-006
  0.10099999999999998          2.4202348368886344E-006
  0.10185000000000000          2.9243522286582668E-006
  0.10269999999999999          3.2132531303344732E-006
  0.10355000000000000          3.2338821110010339E-006
  0.10439999999999999          2.9528112238577590E-006
  0.10524999999999998          2.3615095165681058E-006
  0.10610000000000000          1.4798103536379918E-006
  0.10694999999999999          3.5713319499761779E-007
  0.10779999999999998         -9.2901014012627425E-007
  0.10865000000000000         -2.2773805578656424E-006
  0.10949999999999999         -3.5701961404793378E-006
  0.11035000000000000         -4.6827825959893370E-006
  0.11119999999999999         -5.4947877897994474E-006
  0.11204999999999998         -5.9020693169513636E-006
  0.11290000000000000         -5.8279553724307707E-006
  0.11374999999999999         -5.2327751371182086E-006
  0.11459999999999998         -4.1204607814989224E-006
  0.11545000000000000         -2.5414754415447768E-006
  0.11629999999999999         -5.9169837665254701E-007
  0.11715000000000000          1.5928095012783503E-006
  0.11799999999999999          3.8448320138670102E-006
  0.11884999999999998          5.9782570038205335E-006
  0.11970000000000000          7.8026425919478100E-006
  0.12054999999999999          9.1391351248109208E-006
  0.12139999999999998          9.8364992248087194E-006
  0.12225000000000000          9.7859325669613387E-006
  0.12309999999999999          8.9335102116998093E-006
  0.12395000000000000          7.2886895749860402E-006
  0.12479999999999999          4.9278934119276194E-006
  0.12564999999999998          1.9923186285664675E-006
  0.12650000000000000         -1.3201307113661315E-006
  0.12734999999999999         -4.7684794396492878E-006
  0.12819999999999998         -8.0869588460460107E-006
  0.12905000000000000         -1.1006148040460459E-005
  0.12989999999999999         -1.3275113683172242E-005
  0.13074999999999998         -1.4682472981216926E-005
  0.13159999999999999         -1.5074553141247743E-005
  0.13245000000000001         -1.4369070671134137E-005
  0.13329999999999997         -1.2563369038080598E-005
  0.13414999999999999         -9.7366122374475742E-006
  0.13500000000000001         -6.0460164196817994E-006
  0.13584999999999997         -1.7174598409008069E-006
  0.13669999999999999          2.9688983162499619E-006
  0.13755000000000001          7.6969143170474416E-006
  0.13839999999999997          1.2135747304454763E-005
  0.13924999999999998          1.5962821721544199E-005
  0.14010000000000000          1.8886560132089466E-005
  0.14094999999999996          2.0667776595665234E-005
  0.14179999999999998          2.1137707615930130E-005
  0.14265000000000000          2.0211495432204715E-005
  0.14350000000000002          1.7896175007273731E-005
  0.14434999999999998          1.4292689794374453E-005
  0.14520000000000000          9.5913369952204018E-006
  0.14605000000000001          4.0614224203732360E-006
  0.14689999999999998         -1.9645771302714915E-006
  0.14774999999999999         -8.1107357368858797E-006
  0.14860000000000001         -1.3980838541999565E-005
  0.14944999999999997         -1.9183520584427605E-005
  0.15029999999999999         -2.3358351401433243E-005
  0.15115000000000001         -2.6200678367594821E-005
  0.15199999999999997         -2.7483522774776540E-005
  0.15284999999999999         -2.7074962293183602E-005
  0.15370000000000000         -2.4950222418400819E-005
  0.15454999999999997         -2.1197015562034334E-005
  0.15539999999999998         -1.6011895760694294E-005
  0.15625000000000000         -9.6889628883102037E-006
  0.15709999999999996         -2.6017416368764774E-006
  0.15794999999999998          4.8202858456298245E-006
  0.15880000000000000          1.2118961032809608E-005
  0.15965000000000001          1.8836243032024607E-005
  0.16049999999999998          2.4543372441711507E-005
  0.16134999999999999          2.8869336051513095E-005
  0.16220000000000001          3.1527349062776085E-005
  0.16304999999999997          3.2336958767878021E-005
  0.16389999999999999          3.1237368394943782E-005
  0.16475000000000001          2.8290508509499098E-005
  0.16559999999999997          2.3676000419944276E-005
  0.16644999999999999          1.7680389867603645E-005
  0.16730000000000000          1.0677888208589651E-005
  0.16814999999999997          3.0966042415059732E-006
  0.16899999999999998         -4.6233884444351018E-006
  0.16985000000000000         -1.2071480903350806E-005
  0.17069999999999996         -1.8898727969634546E-005
  0.17154999999999998         -2.4845157425645223E-005
  0.17240000000000000         -2.9755043777790247E-005
  0.17325000000000002         -3.3584795657020537E-005
  0.17409999999999998         -3.6395334815446736E-005
  0.17494999999999999         -3.8332040931372222E-005
  0.17580000000000001         -3.9605309924838883E-005
  0.17664999999999997         -4.0472264691291632E-005
  0.17749999999999999         -4.1202068319892362E-005
  0.17835000000000001         -4.2044060372428403E-005
  0.17919999999999997         -4.3192815662031457E-005
  0.18004999999999999         -4.4785433909219670E-005
  0.18090000000000001         -4.6906581616163611E-005
  0.18174999999999997         -4.9584418643039118E-005
  0.18259999999999998         -5.2796506588066371E-005
  0.18345000000000000         -5.6477652859164090E-005
  0.18429999999999996         -6.0577810791180491E-005
  0.18514999999999998         -6.5092037916833972E-005
  0.18600000000000000         -7.0105565404367511E-005
  0.18684999999999996         -7.5792999440298366E-005
  0.18769999999999998         -8.2455390615542593E-005
  0.18855000000000000         -9.0524960106329078E-005
  0.18940000000000001         -1.0053051925570785E-004
  0.19024999999999997         -1.1306253764816774E-004
  0.19109999999999999         -1.2871757524685485E-004
  0.19195000000000001         -1.4807355134802019E-004
  0.19279999999999997         -1.7167233927335875E-004
  0.19364999999999999         -1.9994260634758455E-004
  0.19450000000000001         -2.3310011081917434E-004
  0.19534999999999997         -2.7122543237761076E-004
  0.19619999999999999         -3.1435773788071608E-004
  0.19705000000000000         -3.6257927218300164E-004
  0.19789999999999996         -4.1588608819933192E-004
  0.19874999999999998         -4.7408898468778867E-004
  0.19960000000000000         -5.3662986750316311E-004
  0.20044999999999996         -6.0308638939311787E-004
  0.20129999999999998         -6.7327493953804780E-004
  0.20215000000000000         -7.4735568781795830E-004
  0.20300000000000001         -8.2543961210497919E-004
  0.20384999999999998         -9.0725441955759800E-004
  0.20469999999999999         -9.9259479531957134E-004
  0.20555000000000001         -1.0815436433973783E-003
  0.20639999999999997         -1.1742141155808516E-003
  0.20724999999999999         -1.2707537372900054E-003
  0.20810000000000001         -1.3706899292895338E-003
  0.20894999999999997         -1.4731755654970873E-003
  0.20979999999999999         -1.5771941992765346E-003
  0.21065000000000000         -1.6810061132956900E-003
  0.21149999999999997         -1.7823290846488179E-003
  0.21234999999999998         -1.8777515182834923E-003
  0.21320000000000000         -1.9645223087204713E-003
  0.21404999999999996         -2.0400086131546259E-003
  0.21489999999999998         -2.1012723657988118E-003
  0.21575000000000000         -2.1432892977608703E-003
  0.21659999999999996         -2.1603327173820141E-003
  0.21744999999999998         -2.1474771455877078E-003
  0.21829999999999999         -2.0983518712536552E-003
  0.21915000000000001         -2.0061002866564319E-003
  0.21999999999999997         -1.8637155266769683E-003
  0.22084999999999999         -1.6622094371320007E-003
  0.22170000000000001         -1.3922028625954984E-003
  0.22254999999999997         -1.0425932731853269E-003
  0.22339999999999999         -6.0112453040083716E-004
  0.22425000000000000         -5.5459985241603470E-005
  0.22509999999999997          6.0584265439204065E-004
  0.22594999999999998          1.3953298181689274E-003
  0.22680000000000000          2.3286698403139723E-003
  0.22764999999999996          3.4227788422891339E-003
  0.22849999999999998          4.6971325235470630E-003
  0.22935000000000000          6.1642503005815523E-003
  0.23019999999999996          7.8368379295042055E-003
  0.23104999999999998          9.7335101465954935E-003
  0.23190000000000000          1.1875057944106968E-002
  0.23275000000000001          1.4281182339400043E-002
  0.23359999999999997          1.6961188642003158E-002
  0.23444999999999999          1.9921611125323136E-002
  0.23530000000000001          2.3171952373557431E-002
  0.23614999999999997          2.6730768329920628E-002
  0.23699999999999999          3.0610207865363538E-002
  0.23785000000000001          3.4816876040080103E-002
  0.23869999999999997          3.9346549476431555E-002
  0.23954999999999999          4.4197861331456444E-002
  0.24040000000000000          4.9371734289170979E-002
  0.24124999999999996          5.4866034498253224E-002
  0.24209999999999998          6.0663774199339451E-002
  0.24295000000000000          6.6743008449316729E-002
  0.24379999999999996          7.3079024682068880E-002
  0.24464999999999998          7.9635202729509649E-002
  0.24550000000000000          8.6373930370198040E-002
  0.24634999999999996          9.3241749701268167E-002
  0.24719999999999998         0.10018580544814726
  0.24804999999999999         0.10714601056732290
  0.24890000000000001         0.11404987551316761
  0.24974999999999997         0.12080538331739796
  0.25059999999999999         0.12730746809800869
  0.25145000000000001         0.13345733359835363
  0.25229999999999997         0.13914823490252981
  0.25314999999999999         0.14426300823970920
  0.25400000000000000         0.14867106177694406
  0.25484999999999997         0.15222680987622644
  0.25569999999999998         0.15479964137690805
  0.25655000000000000         0.15624976251981978
  0.25739999999999996         0.15643024722777887
  0.25824999999999998         0.15517718019947879
  0.25910000000000000         0.15234560568584624
  0.25994999999999996         0.14780366205830425
  0.26079999999999998         0.14140921696629780
  0.26164999999999999         0.13300580761445019
  0.26249999999999996         0.12242815776518393
  0.26334999999999997         0.10955516150769917
  0.26419999999999999          9.4304944186573147E-002
  0.26505000000000001          7.6603908743926530E-002
  0.26589999999999997          5.6366939472097519E-002
  0.26674999999999999          3.3526770419810059E-002
  0.26760000000000000          8.0602507474162206E-003
  0.26844999999999997         -1.9994919086765012E-002
  0.26929999999999998         -5.0579973355180691E-002
  0.27015000000000000         -8.3635043114370852E-002
  0.27099999999999996        -0.11907116285251970
  0.27184999999999998        -0.15673318262048955
  0.27270000000000000        -0.19640548776374611
  0.27354999999999996        -0.23786770922101969
  0.27439999999999998        -0.28086586262650287
  0.27524999999999999        -0.32509520416733018
  0.27609999999999996        -0.37018239238098494
  0.27694999999999997        -0.41569899530290949
  0.27779999999999999        -0.46122497589068312
  0.27865000000000001        -0.50632696847394998
  0.27949999999999997        -0.55053580910391897
  0.28034999999999999        -0.59330829516473982
  0.28120000000000001        -0.63410215902618228
  0.28204999999999997        -0.67233981387557773
  0.28289999999999998        -0.70747442264856397
  0.28375000000000000        -0.73898494656025848
  0.28459999999999996        -0.76630298345031989
  0.28544999999999998        -0.78884357906951985
  0.28630000000000000        -0.80604496137141934
  0.28714999999999996        -0.81740148014663072
  0.28799999999999998        -0.82247420473902277
  0.28885000000000000        -0.82082425319571506
  0.28969999999999996        -0.81207970746217195
  0.29054999999999997        -0.79592365328563330
  0.29139999999999999        -0.77211642080937359
  0.29224999999999995        -0.74047485337439800
  0.29309999999999997        -0.70088983731545706
  0.29394999999999999        -0.65338060232674189
  0.29480000000000001        -0.59806678207635899
  0.29564999999999997        -0.53510982927236828
  0.29649999999999999        -0.46473276053610457
  0.29735000000000000        -0.38726586253936873
  0.29819999999999997        -0.30320641031510143
  0.29904999999999998        -0.21316533710046848
  0.29990000000000000        -0.11775978105727426
  0.30074999999999996         -1.7669756022004664E-002
  0.30159999999999998          8.6320947515206581E-002
  0.30245000000000000         0.19331173334426982
  0.30329999999999996         0.30233853286602436
  0.30414999999999998         0.41245889181089990
  0.30499999999999999         0.52266864618399977
  0.30584999999999996         0.63191650247768749
  0.30669999999999997         0.73908532291293283
  0.30754999999999999         0.84310865666746404
  0.30840000000000001         0.94292009287695966
  0.30924999999999997          1.0374750734727580
  0.31009999999999999          1.1257185396027338
  0.31095000000000000          1.2066679431004326
  0.31179999999999997          1.2794677773048595
  0.31264999999999998          1.3433188258829443
  0.31350000000000000          1.3974537629282122
  0.31434999999999996          1.4411954145756332
  0.31519999999999998          1.4739436017026120
  0.31605000000000000          1.4953156036447977
  0.31689999999999996          1.5050263708985809
  0.31774999999999998          1.5028640575968764
  0.31859999999999999          1.4886959576704706
  0.31944999999999996          1.4625187502789814
  0.32029999999999997          1.4245684860486039
  0.32114999999999999          1.3752355362932438
  0.32199999999999995          1.3149641522160462
  0.32284999999999997          1.2442481909187557
  0.32369999999999999          1.1636895329619867
  0.32455000000000001          1.0740772770476159
  0.32539999999999997         0.97631984971222852
  0.32624999999999998         0.87136816395921235
  0.32710000000000000         0.76016381261735988
  0.32794999999999996         0.64372294524473195
  0.32879999999999998         0.52317599195934994
  0.32965000000000000         0.39973504194501025
  0.33049999999999996         0.27456283368459222
  0.33134999999999998         0.14878182347312707
  0.33220000000000000          2.3519657465492963E-002
  0.33304999999999996        -0.10006527008522628
  0.33389999999999997        -0.22083496603788286
  0.33474999999999999        -0.33776504014925107
  0.33559999999999995        -0.44990685454139223
  0.33644999999999997        -0.55634937235545623
  0.33729999999999999        -0.65625169654336224
  0.33815000000000001        -0.74884883798412583
  0.33899999999999997        -0.83349817027255024
  0.33984999999999999        -0.90962854659202541
  0.34070000000000000        -0.97680186321885287
  0.34154999999999996         -1.0346641726854520
  0.34239999999999998         -1.0829775747603334
  0.34325000000000000         -1.1215986768903288
  0.34409999999999996         -1.1504936793648066
  0.34494999999999998         -1.1697248004006666
  0.34580000000000000         -1.1794397929140705
  0.34664999999999996         -1.1799074269114882
  0.34749999999999998         -1.1714779888376496
  0.34834999999999999         -1.1545727926442992
  0.34919999999999995         -1.1296676162839927
  0.35004999999999997         -1.0972881214140107
  0.35089999999999999         -1.0580580618231308
  0.35174999999999995         -1.0126407877516104