 -0.12000000000000000          0.0000000000000000
 -0.11914999999999999          0.0000000000000000
 -0.11830000000000000          0.0000000000000000
 -0.11745000000000000          0.0000000000000000
 -0.11660000000000000          0.0000000000000000
 -0.11574999999999999          0.0000000000000000
 -0.11490000000000000          0.0000000000000000
 -0.11405000000000000          0.0000000000000000
 -0.11320000000000000          0.0000000000000000
 -0.11234999999999999          0.0000000000000000
 -0.11150000000000000         -4.3967304613424136E-032
 -0.11065000000000000         -6.8564445525132702E-031
 -0.10979999999999999         -5.1429982751958604E-030
 -0.10894999999999999         -2.3865234885775850E-029
 -0.10810000000000000         -7.0761653086722032E-029
 -0.10725000000000000         -1.0124676749551518E-028
 -0.10639999999999999          2.1640770389382057E-028
 -0.10554999999999999          1.9641467654262922E-027
 -0.10470000000000000          7.2871682107314855E-027
 -0.10385000000000000          1.7958257773370034E-026
 -0.10299999999999999          2.8956865851601322E-026
 -0.10214999999999999          1.4076471628312560E-026
 -0.10130000000000000         -9.2306457937044402E-026
 -0.10045000000000000         -3.9402374904797805E-025
  -9.9599999999999994E-002    -9.6099171656962075E-025
  -9.8750000000000004E-002    -1.6212427212560775E-024
  -9.7900000000000001E-002    -1.6048630777704476E-024
  -9.7049999999999997E-002     7.9329718562548686E-025
  -9.6199999999999994E-002     8.0525823102487839E-024
  -9.5349999999999990E-002     2.1984438835241655E-023
  -9.4500000000000001E-002     4.0298707997700550E-023
  -9.3649999999999997E-002     5.1435562985973242E-023
  -9.2799999999999994E-002     3.0136314931291316E-023
  -9.1950000000000004E-002    -6.0705301177781023E-023
  -9.1100000000000000E-002    -2.5418425431518381E-022
  -9.0249999999999997E-002    -5.4362845131259792E-022
  -8.9399999999999993E-002    -8.3036963619932152E-022
  -8.8549999999999990E-002    -8.7643284440045362E-022
  -8.7700000000000000E-002    -3.0565773630190998E-022
  -8.6849999999999997E-002     1.2895315002433817E-021
  -8.5999999999999993E-002     4.0923307717759869E-021
  -8.5150000000000003E-002     7.6725558051660770E-021
  -8.4300000000000000E-002     1.0587514209711450E-020
  -8.3449999999999996E-002     1.0223446588218322E-020
  -8.2600000000000007E-002     3.2108698690658989E-021
  -8.1749999999999989E-002    -1.3305840581301638E-020
  -8.0900000000000000E-002    -3.9531844754959723E-020
  -8.0049999999999996E-002    -7.0496488933112014E-020
  -7.9199999999999993E-002    -9.4216072650835559E-020
  -7.8350000000000003E-002    -9.2068624042805300E-020
  -7.7499999999999999E-002    -4.2849967821866824E-020
  -7.6649999999999996E-002     6.8877539253205727E-020
  -7.5800000000000006E-002     2.4125612715460125E-019
  -7.4949999999999989E-002     4.4377821470828742E-019
  -7.4099999999999999E-002     6.1141284174238223E-019
  -7.3249999999999996E-002     6.5008620407098880E-019
  -7.2399999999999992E-002     4.5758939792263627E-019
  -7.1550000000000002E-002    -4.0520324402119366E-020
  -7.0699999999999999E-002    -8.4691883247089999E-019
  -6.9849999999999995E-002    -1.8537457947434872E-018
  -6.9000000000000006E-002    -2.8260554189857115E-018
  -6.8149999999999988E-002    -3.4227530354772757E-018
  -6.7299999999999999E-002    -3.2619668675417568E-018
  -6.6449999999999995E-002    -2.0241280857782686E-018
  -6.5599999999999992E-002     4.2913195368543514E-019
  -6.4750000000000002E-002     3.9532363488331791E-018
  -6.3899999999999998E-002     8.0705949176729615E-018
  -6.3049999999999995E-002     1.1996030359873625E-017
  -6.2199999999999998E-002     1.4740595394341873E-017
  -6.1350000000000002E-002     1.5272308603594383E-017
  -6.0499999999999998E-002     1.2694688704425499E-017
  -5.9650000000000002E-002     6.4023906182833317E-018
  -5.8799999999999998E-002    -3.8087273150398959E-018
  -5.7950000000000002E-002    -1.7667059274695666E-017
  -5.7099999999999998E-002    -3.4343468422794695E-017
  -5.6249999999999994E-002    -5.2307368225793059E-017
  -5.5400000000000005E-002    -6.9092742981275315E-017
  -5.4550000000000001E-002    -8.1018386454234637E-017
  -5.3699999999999998E-002    -8.3010553536791127E-017
  -5.2849999999999994E-002    -6.8776077552570476E-017
  -5.2000000000000005E-002    -3.1618034122610726E-017
  -5.1150000000000001E-002     3.3881362169684578E-017
  -5.0299999999999997E-002     1.2929810590444544E-016
  -4.9449999999999994E-002     2.4925870091476465E-016
  -4.8600000000000004E-002     3.7853981289421580E-016
  -4.7750000000000001E-002     4.9049040475370307E-016
  -4.6899999999999997E-002     5.4804052741113268E-016
  -4.6049999999999994E-002     5.0834210880084239E-016
  -4.5200000000000004E-002     3.3141376843547604E-016
  -4.4350000000000001E-002    -7.9262221297732321E-018
  -4.3499999999999997E-002    -5.0686126573327331E-016
  -4.2649999999999993E-002    -1.1233213112515030E-015
  -4.1800000000000004E-002    -1.7704959889087890E-015
  -4.0950000000000000E-002    -2.3205949548628889E-015
  -4.0099999999999997E-002    -2.6198361005917903E-015
  -3.9249999999999993E-002    -2.5141009268173929E-015
  -3.8400000000000004E-002    -1.8816356972385556E-015
  -3.7550000000000000E-002    -6.6645984857902408E-016
  -3.6699999999999997E-002     1.0952296690499246E-015
  -3.5850000000000007E-002     3.2626687687286687E-015
  -3.5000000000000003E-002     5.5961872119658544E-015
  -3.4150000000000000E-002     7.7802432741176076E-015
  -3.3299999999999996E-002     9.4581728632949133E-015
  -3.2450000000000007E-002     1.0269689126292788E-014
  -3.1600000000000003E-002     9.8821910899071932E-015
  -3.0750000000000000E-002     8.0111848790783360E-015
  -2.9899999999999996E-002     4.4328547914503328E-015
  -2.9050000000000006E-002    -9.9954557428493964E-016
  -2.8200000000000003E-002    -8.3180031235517083E-015
  -2.7349999999999999E-002    -1.7364360699214871E-014
  -2.6499999999999996E-002    -2.7671511375050585E-014
  -2.5650000000000006E-002    -3.8315420286814022E-014
  -2.4800000000000003E-002    -4.7777632445671471E-014
  -2.3949999999999999E-002    -5.3880888808318801E-014
  -2.3099999999999996E-002    -5.3872089005525987E-014
  -2.2250000000000006E-002    -4.4718448966739421E-014
  -2.1400000000000002E-002    -2.3649805561643364E-014
  -2.0549999999999999E-002     1.1076264850598421E-014
  -1.9699999999999995E-002     5.9280363269673241E-014
  -1.8850000000000006E-002     1.1800242138229148E-013
  -1.8000000000000002E-002     1.8089387734640054E-013
  -1.7149999999999999E-002     2.3809357133313772E-013
  -1.6299999999999995E-002     2.7679041722546535E-013
  -1.5450000000000005E-002     2.8259529339263661E-013
  -1.4600000000000002E-002     2.4171829791919499E-013
  -1.3749999999999998E-002     1.4378846945266238E-013
  -1.2899999999999995E-002    -1.5017593005011299E-014
  -1.2050000000000005E-002    -2.2902801654412989E-013
  -1.1200000000000002E-002    -4.8091226918931441E-013
  -1.0349999999999998E-002    -7.4094426309017490E-013
  -9.5000000000000084E-003    -9.6826622786159106E-013
  -8.6500000000000049E-003    -1.1145302115441466E-012
  -7.8000000000000014E-003    -1.1299628274195122E-012
  -6.9499999999999978E-003    -9.7145472330044027E-013
  -6.1000000000000082E-003    -6.1177525567837754E-013
  -5.2500000000000047E-003    -4.8543564893788332E-014
  -4.4000000000000011E-003     6.8873090534586640E-013
  -3.5499999999999976E-003     1.5352728356014276E-012
  -2.7000000000000079E-003     2.3927649525171853E-012
  -1.8500000000000044E-003     3.1369448193577127E-012
  -1.0000000000000009E-003     3.6309054596660955E-012
  -1.4999999999999736E-004     3.7428698212163342E-012
   6.9999999999999230E-004     3.3662590857781691E-012
   1.5499999999999958E-003     2.4392560498099948E-012
   2.3999999999999994E-003     9.6095932070933560E-013
   3.2500000000000029E-003    -9.9837051119266003E-013
   4.0999999999999925E-003    -3.2946532587157385E-012
   4.9499999999999961E-003    -5.7155515926549172E-012
   5.7999999999999996E-003    -7.9939066871959028E-012
   6.6499999999999893E-003    -9.8280429920547892E-012
   7.5000000000000067E-003    -1.0907674429259877E-011
   8.3499999999999963E-003    -1.0944105673626677E-011
   9.1999999999999860E-003    -9.7034465289999767E-012
   1.0050000000000003E-002    -7.0413601403407493E-012
   1.0899999999999993E-002    -2.9372480528693570E-012
   1.1750000000000010E-002     2.4753273675546053E-012
   1.2600000000000000E-002     8.8865109113620285E-012
   1.3449999999999990E-002     1.5801830210738720E-011
   1.4300000000000007E-002     2.2553319493904815E-011
   1.5149999999999997E-002     2.8334626551832797E-011
   1.5999999999999986E-002     3.2262161489954387E-011
   1.6850000000000004E-002     3.3460693927701862E-011
   1.7699999999999994E-002     3.1167595941410457E-011
   1.8549999999999983E-002     2.4846146883722290E-011
   1.9400000000000001E-002     1.4295506928276555E-011
   2.0249999999999990E-002    -2.5629037119361787E-013
   2.1100000000000008E-002    -1.8089558893320374E-011
   2.1949999999999997E-002    -3.7971934499745986E-011
   2.2799999999999987E-002    -5.8187883251466300E-011
   2.3650000000000004E-002    -7.6624180022649160E-011
   2.4499999999999994E-002    -9.0913196058440940E-011
   2.5349999999999984E-002    -9.8631139817465316E-011
   2.6200000000000001E-002    -9.7542758223576821E-011
   2.7049999999999991E-002    -8.5877362627484641E-011
   2.7900000000000008E-002    -6.2613474104006194E-011
   2.8749999999999998E-002    -2.7742555471905351E-011
   2.9599999999999987E-002     1.7522830032436472E-011
   3.0450000000000005E-002     7.0631979307665167E-011
   3.1299999999999994E-002     1.2770154684373346E-010
   3.2149999999999984E-002     1.8366494677859974E-010
   3.3000000000000002E-002     2.3257332805160812E-010
   3.3849999999999991E-002     2.6803960020650917E-010
   3.4700000000000009E-002     2.8380087844446120E-010
   3.5549999999999998E-002     2.7436100150010034E-010
   3.6399999999999988E-002     2.3566602418777569E-010
   3.7250000000000005E-002     1.6575877252569930E-010
   3.8099999999999995E-002     6.5353984734505557E-011
   3.8949999999999985E-002    -6.1727961251684883E-011
   3.9800000000000002E-002    -2.0833318030144451E-010
   4.0649999999999992E-002    -3.6401644917688814E-010
   4.1500000000000009E-002    -5.1541071730216231E-010
   4.2349999999999999E-002    -6.4696362555940966E-010
   4.3199999999999988E-002    -7.4204951654204679E-010
   4.4050000000000006E-002    -7.8442013229616149E-010
   4.4899999999999995E-002    -7.5990330519615655E-010
   4.5749999999999985E-002    -6.5820556267537902E-010
   4.6600000000000003E-002    -4.7463379028415874E-010
   4.7449999999999992E-002    -2.1153271565779407E-010
   4.8299999999999982E-002     1.2075696335357457E-010
   4.9149999999999999E-002     5.0357885576395227E-010
   4.9999999999999989E-002     9.1038047275307891E-010
   5.0850000000000006E-002     1.3079073720142195E-009
   5.1699999999999996E-002     1.6581469522470311E-009
   5.2549999999999986E-002     1.9209448595654803E-009
   5.3400000000000003E-002     2.0571780674260319E-009
   5.4249999999999993E-002     2.0323346617542683E-009
   5.5099999999999982E-002     1.8203063238338668E-009
   5.5950000000000000E-002     1.4071478222645149E-009
   5.6799999999999989E-002     7.9449009101034012E-010
   5.7650000000000007E-002     2.2218148926770773E-012
   5.8499999999999996E-002    -9.2999481087616814E-010
   5.9349999999999986E-002    -1.9428018524658818E-009
   6.0200000000000004E-002    -2.9591721507271038E-009
   6.1049999999999993E-002    -3.8885794730565082E-009
   6.1899999999999983E-002    -4.6332706944200252E-009
   6.2750000000000000E-002    -5.0963226511219490E-009
   6.3599999999999990E-002    -5.1908876800776020E-009
   6.4450000000000007E-002    -4.8498073688339987E-009
   6.5299999999999997E-002    -4.0346496037995898E-009
   6.6149999999999987E-002    -2.7432192071922582E-009
   6.7000000000000004E-002    -1.0146788743197342E-009
   6.7849999999999994E-002     1.0684010253012117E-009
   6.8699999999999983E-002     3.3815028717311535E-009
   6.9550000000000001E-002     5.7633240051880594E-009
   7.0399999999999990E-002     8.0245735097644523E-009
   7.1249999999999980E-002     9.9600899467354813E-009
   7.2099999999999997E-002     1.1363737819345366E-008
   7.2949999999999987E-002     1.2045265189860663E-008
   7.3800000000000004E-002     1.1848045236186327E-008
   7.4649999999999994E-002     1.0666376869622772E-008
   7.5499999999999984E-002     8.4608212308816927E-009
   7.6350000000000001E-002     5.2699850347687970E-009
   7.7199999999999991E-002     1.2172454614275927E-009
   7.8049999999999981E-002    -3.4888206012171162E-009
   7.8899999999999998E-002    -8.5610703036591912E-009
   7.9749999999999988E-002    -1.3647680673299032E-008
   8.0600000000000005E-002    -1.8352860731351693E-008
   8.1449999999999995E-002    -2.2263269801336627E-008
   8.2299999999999984E-002    -2.4978505518381076E-008
   8.3150000000000002E-002    -2.6143614236567880E-008
   8.3999999999999991E-002    -2.5481359216894397E-008
   8.4849999999999981E-002    -2.2821789672662705E-008
   8.5699999999999998E-002    -1.8126667586341115E-008
   8.6549999999999988E-002    -1.1506510493298523E-008
   8.7400000000000005E-002    -3.2282444701785038E-009
   8.8249999999999995E-002     6.2880614594978139E-009
   8.9099999999999985E-002     1.6484310820113972E-008
   8.9950000000000002E-002     2.6691445357368002E-008
   9.0799999999999992E-002     3.6167634260400301E-008
   9.1649999999999981E-002     4.4145714853809785E-008
   9.2499999999999999E-002     4.9887109981898162E-008
   9.3349999999999989E-002     5.2738746203885646E-008
   9.4200000000000006E-002     5.2188939589908898E-008
   9.5049999999999996E-002     4.7918094162529459E-008
   9.5899999999999985E-002     3.9840160344117176E-008
   9.6750000000000003E-002     2.8131116561425653E-008
   9.7599999999999992E-002     1.3241451021431453E-008
   9.8449999999999982E-002    -4.1096837291121553E-009
   9.9299999999999999E-002    -2.2960032135550192E-008
  0.10014999999999999         -4.2149812510532218E-008
  0.10099999999999998         -6.0386174306186758E-008
  0.10185000000000000         -7.6323673883613356E-008
  0.10269999999999999         -8.8656320333746803E-008
  0.10355000000000000         -9.6215120697403707E-008
  0.10439999999999999         -9.8063835646189320E-008
  0.10524999999999998         -9.3584916373835225E-008
  0.10610000000000000         -8.2547706436227683E-008
  0.10694999999999999         -6.5152247998500672E-008
  0.10779999999999998         -4.2043933262667045E-008
  0.10865000000000000         -1.4296533697259006E-008
  0.10949999999999999          1.6636281704904357E-008
  0.11035000000000000          4.8998181952344158E-008
  0.11119999999999999          8.0831476464881073E-008
  0.11204999999999998          1.1009618163129463E-007
  0.11290000000000000          1.3479959431689231E-007
  0.11374999999999999          1.5312863196311474E-007
  0.11459999999999998          1.6357623336330906E-007
  0.11545000000000000          1.6505347892258313E-007
  0.11629999999999999          1.5697953470922704E-007
  0.11715000000000000          1.3934162768436122E-007
  0.11799999999999999          1.1271910233019678E-007
  0.11884999999999998          7.8267515136585966E-008
  0.11970000000000000          3.7661820070375400E-008
  0.12054999999999999         -6.9983609805453573E-009
  0.12139999999999998         -5.3314780888133111E-008
  0.12225000000000000         -9.8738429881791991E-008
  0.12309999999999999         -1.4072671836861942E-007
  0.12395000000000000         -1.7689717714557900E-007
  0.12479999999999999         -2.0516648523604647E-007
  0.12564999999999998         -2.2386390089633030E-007
  0.12650000000000000         -2.3181121890265700E-007
  0.12734999999999999         -2.2836545495725771E-007
  0.12819999999999998         -2.1342586402243431E-007
  0.12905000000000000         -1.8740634136885023E-007
  0.12989999999999999         -1.5117142472831787E-007
  0.13074999999999998         -1.0594553179608993E-007
  0.13159999999999999         -5.3204522160797074E-008
  0.13245000000000001          5.4501667564606596E-009
  0.13329999999999997          6.8421177278212029E-008
  0.13414999999999999          1.3424510047263895E-007
  0.13500000000000001          2.0172089826833084E-007
  0.13584999999999997          2.7001783550900080E-007
  0.13669999999999999          3.3876219741561040E-007
  0.13755000000000001          4.0810779585441565E-007
  0.13839999999999997          4.7878084941444206E-007
  0.13924999999999998          5.5211106830140725E-007
  0.14010000000000000          6.3005479184906151E-007
  0.14094999999999996          7.1520601557841557E-007
  0.14179999999999998          8.1079619312372355E-007
  0.14265000000000000          9.2070315205772268E-007
  0.14350000000000002          1.0494779539656161E-006
  0.14434999999999998          1.2023560075396586E-006
  0.14520000000000000          1.3852494689901220E-006
  0.14605000000000001          1.6047735630099702E-006
  0.14689999999999998          1.8682967052607220E-006
  0.14774999999999999          2.1839562267050533E-006
  0.14860000000000001          2.5607083933412291E-006
  0.14944999999999997          3.0084405897894504E-006
  0.15029999999999999          3.5381343799251552E-006
  0.15115000000000001          4.1620480243418429E-006
  0.15199999999999997          4.8939065339453004E-006
  0.15284999999999999          5.7491547420493036E-006
  0.15370000000000000          6.7452910559238731E-006
  0.15454999999999997          7.9022356028685964E-006
  0.15539999999999998          9.2426867492289553E-006
  0.15625000000000000          1.0792413377045167E-005
  0.15709999999999996          1.2580715344655708E-005
  0.15794999999999998          1.4640925138148007E-005
  0.15880000000000000          1.7010843004530475E-005
  0.15965000000000001          1.9733189042945979E-005
  0.16049999999999998          2.2855915707150444E-005
  0.16134999999999999          2.6432509936888689E-005
  0.16220000000000001          3.0522120364110548E-005
  0.16304999999999997          3.5189828333625891E-005
  0.16389999999999999          4.0506700734471921E-005
  0.16475000000000001          4.6549904276845045E-005
  0.16559999999999997          5.3402919598779031E-005
  0.16644999999999999          6.1155679021305579E-005
  0.16730000000000000          6.9904608992243827E-005
  0.16814999999999997          7.9752850750814121E-005
  0.16899999999999998          9.0810823214602368E-005
  0.16985000000000000          1.0319624184505007E-004
  0.17069999999999996          1.1703465776238570E-004
  0.17154999999999998          1.3246024477332193E-004
  0.17240000000000000          1.4961519004660760E-004
  0.17325000000000002          1.6864980709769767E-004
  0.17409999999999998          1.8972261038274112E-004
  0.17494999999999999          2.1299886697484445E-004
  0.17580000000000001          2.3864997990388483E-004
  0.17664999999999997          2.6685358600365700E-004
  0.17749999999999999          2.9779321198463446E-004
  0.17835000000000001          3.3165476096519848E-004
  0.17919999999999997          3.6862318091804459E-004
  0.18004999999999999          4.0888150536762084E-004
  0.18090000000000001          4.5260968409569923E-004
  0.18174999999999997          4.9997951357737172E-004
  0.18259999999999998          5.5115025368797105E-004
  0.18345000000000000          6.0626646409285068E-004
  0.18429999999999996          6.6545366971326866E-004
  0.18514999999999998          7.2881419445746710E-004
  0.18600000000000000          7.9642237168774306E-004
  0.18684999999999996          8.6832232658817907E-004
  0.18769999999999998          9.4452326587398175E-004
  0.18855000000000000          1.0249892643262926E-003
  0.18940000000000001          1.1096390602643861E-003
  0.19024999999999997          1.1983427988740466E-003
  0.19109999999999999          1.2909140797936756E-003
  0.19195000000000001          1.3871031724830337E-003
  0.19279999999999997          1.4865871495334953E-003
  0.19364999999999999          1.5889637163911097E-003
  0.19450000000000001          1.6937537138657665E-003
  0.19534999999999997          1.8004005819089502E-003
  0.19619999999999999          1.9082550229767140E-003
  0.19705000000000000          2.0165643663208549E-003
  0.19789999999999996          2.1244640029139403E-003
  0.19874999999999998          2.2309871729989193E-003
  0.19960000000000000          2.3350758234604108E-003
  0.20044999999999996          2.4355588283634117E-003
  0.20129999999999998          2.5311427475763347E-003
  0.20215000000000000          2.6204286713047819E-003
  0.20300000000000001          2.7019222516754130E-003
  0.20384999999999998          2.7740471855121534E-003
  0.20469999999999999          2.8351385348585308E-003
  0.20555000000000001          2.8834439439691111E-003
  0.20639999999999997          2.9171419591064573E-003
  0.20724999999999999          2.9343663062962621E-003
  0.20810000000000001          2.9332271162905688E-003
  0.20894999999999997          2.9118096905813417E-003
  0.20979999999999999          2.8682005011505043E-003
  0.21065000000000000          2.8005212255792908E-003
  0.21149999999999997          2.7069477590582025E-003
  0.21234999999999998          2.5857289442923004E-003
  0.21320000000000000          2.4352071931292704E-003
  0.21404999999999996          2.2538628724851598E-003
  0.21489999999999998          2.0403512645322123E-003
  0.21575000000000000          1.7935041141613085E-003
  0.21659999999999996          1.5123727676820747E-003
  0.21744999999999998          1.1962737417496026E-003
  0.21829999999999999          8.4481472342499584E-004
  0.21915000000000001          4.5790837454402658E-004
  0.21999999999999997          3.5803103163212615E-005
  0.22084999999999999         -4.2087791273469886E-004
  0.22170000000000001         -9.1111750056866022E-004
  0.22254999999999997         -1.4334674048196178E-003
  0.22339999999999999         -1.9860291860888139E-003
  0.22425000000000000         -2.5665048267528999E-003
  0.22509999999999997         -3.1722072036102305E-003
  0.22594999999999998         -3.7999655020751716E-003
  0.22680000000000000         -4.4461012120839381E-003
  0.22764999999999996         -5.1064873286207979E-003
  0.22849999999999998         -5.7766015062687944E-003
  0.22935000000000000         -6.4515616902737823E-003
  0.23019999999999996         -7.1261538739723030E-003
  0.23104999999999998         -7.7948378199166326E-003
  0.23190000000000000         -8.4517537682282200E-003
  0.23275000000000001         -9.0907823641173599E-003
  0.23359999999999997         -9.7056291172494813E-003
  0.23444999999999999         -1.0289908819768490E-002
  0.23530000000000001         -1.0837202650541004E-002
  0.23614999999999997         -1.1341089642190549E-002
  0.23699999999999999         -1.1795203054681274E-002
  0.23785000000000001         -1.2193349678238137E-002
  0.23869999999999997         -1.2529622673070010E-002
  0.23954999999999999         -1.2798428399329317E-002
  0.24040000000000000         -1.2994507416269882E-002
  0.24124999999999996         -1.3113041212470162E-002
  0.24209999999999998         -1.3149802116725099E-002
  0.24295000000000000         -1.3101219819902352E-002
  0.24379999999999996         -1.2964382764145516E-002
  0.24464999999999998         -1.2737059106980617E-002
  0.24550000000000000         -1.2417781478852056E-002
  0.24634999999999996         -1.2005935012457582E-002
  0.24719999999999998         -1.1501798188490404E-002
  0.24804999999999999         -1.0906550706060980E-002
  0.24890000000000001         -1.0222260817032161E-002
  0.24974999999999997         -9.4518816961257079E-003
  0.25059999999999999         -8.5992493506858603E-003
  0.25145000000000001         -7.6690709206006652E-003
  0.25229999999999997         -6.6669161259032246E-003
  0.25314999999999999         -5.5991812821991754E-003
  0.25400000000000000         -4.4730141967466224E-003
  0.25484999999999997         -3.2962042069266811E-003
  0.25569999999999998         -2.0771356222340316E-003
  0.25655000000000000         -8.2479339574320718E-004
  0.25739999999999996          4.5135115978047185E-004
  0.25824999999999998          1.7415302171024196E-003
  0.25910000000000000          3.0357740341340035E-003
  0.25994999999999996          4.3239463450255302E-003
  0.26079999999999998          5.5957890799686110E-003
  0.26164999999999999          6.8410844817514693E-003
  0.26249999999999996          8.0498976156901901E-003
  0.26334999999999997          9.2126410561629100E-003
  0.26419999999999999          1.0320071314936055E-002
  0.26505000000000001          1.1363310240746542E-002
  0.26589999999999997          1.2334079408975799E-002
  0.26674999999999999          1.3224916627066837E-002
  0.26760000000000000          1.4029135066676995E-002
  0.26844999999999997          1.4740774059422234E-002
  0.26929999999999998          1.5354630812281781E-002
  0.27015000000000000          1.5866487770468837E-002
  0.27099999999999996          1.6273270549768317E-002
  0.27184999999999998          1.6572911852360837E-002
  0.27270000000000000          1.6764201949641053E-002
  0.27354999999999996          1.6846831480373262E-002
  0.27439999999999998          1.6821556059939277E-002
  0.27524999999999999          1.6690247729792773E-002
  0.27609999999999996          1.6455757838465649E-002
  0.27694999999999997          1.6121721726349215E-002
  0.27779999999999999          1.5692528527264226E-002
  0.27865000000000001          1.5173385638127273E-002
  0.27949999999999997          1.4570284702517537E-002
  0.28034999999999999          1.3889861611223065E-002
  0.28120000000000001          1.3139210193339230E-002
  0.28204999999999997          1.2325813397929290E-002
  0.28289999999999998          1.1457530154474174E-002
  0.28375000000000000          1.0542584728665417E-002
  0.28459999999999996          9.5894263425362822E-003
  0.28544999999999998          8.6065393063369886E-003
  0.28630000000000000          7.6023585293577773E-003
  0.28714999999999996          6.5852147578808144E-003
  0.28799999999999998          5.5633107635143595E-003
  0.28885000000000000          4.5446618896056775E-003
  0.28969999999999996          3.5369590687520207E-003
  0.29054999999999997          2.5474510152996249E-003
  0.29139999999999999          1.5828917688724595E-003
  0.29224999999999995          6.4953339290231473E-004
  0.29309999999999997         -2.4688107025651199E-004
  0.29394999999999999         -1.1011812875295628E-003
  0.29480000000000001         -1.9088328387619632E-003
  0.29564999999999997         -2.6659465335483845E-003
  0.29649999999999999         -3.3692617687595913E-003
  0.29735000000000000         -4.0161175993180948E-003
  0.29819999999999997         -4.6044474085636874E-003
  0.29904999999999998         -5.1328129693190708E-003
  0.29990000000000000         -5.6004347300454525E-003
  0.30074999999999996         -6.0071517777623247E-003
  0.30159999999999998         -6.3533335327492458E-003
  0.30245000000000000         -6.6398137631802703E-003
  0.30329999999999996         -6.8679016832472175E-003
  0.30414999999999998         -7.0394005987721858E-003
  0.30499999999999999         -7.1565471256718246E-003
  0.30584999999999996         -7.2218807605122157E-003
  0.30669999999999997         -7.2381653819083361E-003
  0.30754999999999999         -7.2083980577231314E-003
  0.30840000000000001         -7.1358256402514293E-003
  0.30924999999999997         -7.0239100855154528E-003
  0.31009999999999999         -6.8762300397472520E-003
  0.31095000000000000         -6.6963933683087439E-003
  0.31179999999999997         -6.4880003939424271E-003
  0.31264999999999998         -6.2546551150759380E-003
  0.31350000000000000         -5.9999565890289010E-003
  0.31434999999999996         -5.7274487975534725E-003
  0.31519999999999998         -5.4405530358336797E-003
  0.31605000000000000         -5.1425153966248721E-003
  0.31689999999999996         -4.8364239060557541E-003
  0.31774999999999998         -4.5252557647647521E-003
  0.31859999999999999         -4.2118391444453986E-003
  0.31944999999999996         -3.8987284098699507E-003
  0.32029999999999997         -3.5881592034686864E-003
  0.32114999999999999         -3.2821624806254716E-003
  0.32199999999999995         -2.9826769216809083E-003
  0.32284999999999997         -2.6914902170235779E-003
  0.32369999999999999         -2.4100793475590010E-003
  0.32455000000000001         -2.1395958906808253E-003
  0.32539999999999997         -1.8810361636462370E-003
  0.32624999999999998         -1.6353264064607074E-003
  0.32710000000000000         -1.4031952520591573E-003
  0.32794999999999996         -1.1850486953815268E-003
  0.32879999999999998         -9.8105836503465304E-004
  0.32965000000000000         -7.9134141356014607E-004
  0.33049999999999996         -6.1598569787362130E-004
  0.33134999999999998         -4.5492885692756792E-004
  0.33220000000000000         -3.0790459043682488E-004
  0.33304999999999996         -1.7453861644226875E-004
  0.33389999999999997         -5.4434812203508836E-005
  0.33474999999999999          5.2865248928829023E-005
  0.33559999999999995          1.4793713982997226E-004
  0.33644999999999997          2.3143733668505619E-004
  0.33729999999999999          3.0402736840748318E-004
  0.33815000000000001          3.6635659644966735E-004
  0.33899999999999997          4.1910489953772144E-004
  0.33984999999999999          4.6300224290603622E-004
  0.34070000000000000          4.9878709394659800E-004
  0.34154999999999996          5.2714473068726428E-004
  0.34239999999999998          5.4869199983449690E-004
  0.34325000000000000          5.6403205196516764E-004