 -0.12000000000000000          0.0000000000000000
 -0.11914999999999999          0.0000000000000000
 -0.11830000000000000          0.0000000000000000
 -0.11745000000000000          0.0000000000000000
 -0.11660000000000000          0.0000000000000000
 -0.11574999999999999          0.0000000000000000
 -0.11490000000000000          0.0000000000000000
 -0.11405000000000000          0.0000000000000000
 -0.11320000000000000          4.0591794577870663E-027
 -0.11234999999999999          8.4629053294449232E-026
 -0.11150000000000000          8.3743968610177928E-025
 -0.11065000000000000          5.3008045344151222E-024
 -0.10979999999999999          2.4108232006502893E-023
 -0.10894999999999999          8.2926984636298380E-023
 -0.10810000000000000          2.1744218144275217E-022
 -0.10725000000000000          4.0972917547455314E-022
 -0.10639999999999999          3.8552694457136746E-022
 -0.10554999999999999         -7.7765432683230137E-022
 -0.10470000000000000         -5.0549314868966614E-021
 -0.10385000000000000         -1.5171340929861708E-020
 -0.10299999999999999         -3.2125605698019315E-020
 -0.10214999999999999         -4.8788918167857080E-020
 -0.10130000000000000         -3.9386369967654740E-020
 -0.10045000000000000          5.0298112449556548E-020
  -9.9599999999999994E-002     2.9831232023290493E-019
  -9.8750000000000004E-002     7.6465931748741437E-019
  -9.7900000000000001E-002     1.3891728661307312E-018
  -9.7049999999999997E-002     1.8295601983553350E-018
  -9.6199999999999994E-002     1.2994509466939083E-018
  -9.5349999999999990E-002    -1.4419927992906311E-018
  -9.4500000000000001E-002    -7.7107904139608114E-018
  -9.3649999999999997E-002    -1.7890414546857704E-017
  -9.2799999999999994E-002    -2.9751088778741621E-017
  -9.1950000000000004E-002    -3.6523626320135534E-017
  -9.1100000000000000E-002    -2.5870541554327669E-017
  -9.0249999999999997E-002     1.8396381120155269E-017
  -8.9399999999999993E-002     1.0981588624758581E-016
  -8.8549999999999990E-002     2.4696375983700757E-016
  -8.7700000000000000E-002     3.9703132520003464E-016
  -8.6849999999999997E-002     4.8139639007472697E-016
  -8.5999999999999993E-002     3.7415541791894153E-016
  -8.5150000000000003E-002    -7.2609085323573366E-017
  -8.4300000000000000E-002    -9.6581583077002561E-016
  -8.3449999999999996E-002    -2.2711744237205522E-015
  -8.2600000000000007E-002    -3.6975300132961440E-015
  -8.1749999999999989E-002    -4.6145706593633327E-015
  -8.0900000000000000E-002    -4.0756881001671148E-015
  -8.0049999999999996E-002    -1.0214638477102081E-015
  -7.9199999999999993E-002     5.2927174339592024E-015
  -7.8350000000000003E-002     1.4679011190598108E-014
  -7.7499999999999999E-002     2.5360869409238823E-014
  -7.6649999999999996E-002     3.3557696250590391E-014
  -7.5800000000000006E-002     3.3675339635645016E-014
  -7.4949999999999989E-002     1.9442483911864053E-014
  -7.4099999999999999E-002    -1.3861134290287158E-014
  -7.3249999999999996E-002    -6.6321129029187683E-014
  -7.2399999999999992E-002    -1.3020315919284053E-013
  -7.1550000000000002E-002    -1.8792875634714051E-013
  -7.0699999999999999E-002    -2.1275658516657824E-013
  -6.9849999999999995E-002    -1.7352196049389145E-013
  -6.9000000000000006E-002    -4.3942494832381124E-014
  -6.8149999999999988E-002     1.8451032522563414E-013
  -6.7299999999999999E-002     4.8909524608836809E-013
  -6.6449999999999995E-002     8.0635745419395833E-013
  -6.5599999999999992E-002     1.0323941638665221E-012
  -6.4750000000000002E-002     1.0377441351126355E-012
  -6.3899999999999998E-002     6.9894562929853207E-013
  -6.3049999999999995E-002    -5.6150011677853911E-014
  -6.2199999999999998E-002    -1.1984009933213686E-012
  -6.1350000000000002E-002    -2.5575817364880599E-012
  -6.0499999999999998E-002    -3.8107408167875979E-012
  -5.9650000000000002E-002    -4.5150226091965199E-012
  -5.8799999999999998E-002    -4.1934393143223031E-012
  -5.7950000000000002E-002    -2.4683453397091791E-012
  -5.7099999999999998E-002     7.8004990285929169E-013
  -5.6249999999999994E-002     5.2695190805580756E-012
  -5.5400000000000005E-002     1.0235829677505770E-011
  -5.4550000000000001E-002     1.4465379016636319E-011
  -5.3699999999999998E-002     1.6472110731066738E-011
  -5.2849999999999994E-002     1.4818227116355669E-011
  -5.2000000000000005E-002     8.5356433612338374E-012
  -5.1150000000000001E-002    -2.4383672850018749E-012
  -5.0299999999999997E-002    -1.6929651021420532E-011
  -4.9449999999999994E-002    -3.2425285353244298E-011
  -4.8600000000000004E-002    -4.5300455186624624E-011
  -4.7750000000000001E-002    -5.1411518416955094E-011
  -4.6899999999999997E-002    -4.7003565125777596E-011
  -4.6049999999999994E-002    -2.9782097396396002E-011
  -4.5200000000000004E-002     8.4990372205365291E-014
  -4.4350000000000001E-002     3.9310919202849952E-011
  -4.3499999999999997E-002     8.1434013661123361E-011
  -4.2649999999999993E-002     1.1752542123025890E-010
  -4.1800000000000004E-002     1.3766932433198123E-010
  -4.0950000000000000E-002     1.3303432102829646E-010
  -4.0099999999999997E-002     9.8170489036446172E-011
  -3.9249999999999993E-002     3.3036138795503773E-011
  -3.8400000000000004E-002    -5.5776294688023624E-011
  -3.7550000000000000E-002    -1.5505794907854851E-010
  -3.6699999999999997E-002    -2.4647880395397652E-010
  -3.5850000000000007E-002    -3.0949491094019337E-010
  -3.5000000000000003E-002    -3.2526937560709444E-010
  -3.4150000000000000E-002    -2.8091653079271184E-010
  -3.3299999999999996E-002    -1.7320190353910659E-010
  -3.2450000000000007E-002    -1.0824584449507262E-011
  -3.1600000000000003E-002     1.8540298516122188E-010
  -3.0750000000000000E-002     3.8479872048343065E-010
  -2.9899999999999996E-002     5.5132296876616211E-010
  -2.9050000000000006E-002     6.4970920120034275E-010
  -2.8200000000000003E-002     6.5215988861709296E-010
  -2.7349999999999999E-002     5.4433692557734566E-010
  -2.6499999999999996E-002     3.2941217157897245E-010
  -2.5650000000000006E-002     2.9239848514589715E-011
  -2.4800000000000003E-002    -3.1777242786560053E-010
  -2.3949999999999999E-002    -6.6188531983659410E-010
  -2.3099999999999996E-002    -9.4951657488815380E-010
  -2.2250000000000006E-002    -1.1317002838196479E-009
  -2.1400000000000002E-002    -1.1720083184818203E-009
  -2.0549999999999999E-002    -1.0525231401863317E-009
  -1.9699999999999995E-002    -7.7684473066193831E-010
  -1.8850000000000006E-002    -3.6971479811424543E-010
  -1.8000000000000002E-002     1.2648137391633109E-010
  -1.7149999999999999E-002     6.5748770736895086E-010
  -1.6299999999999995E-002     1.1640125145566539E-009
  -1.5450000000000005E-002     1.5883585313052535E-009
  -1.4600000000000002E-002     1.8798406616694867E-009
  -1.3749999999999998E-002     1.9984845007026917E-009
  -1.2899999999999995E-002     1.9170863956351078E-009
  -1.2050000000000005E-002     1.6222195692138123E-009
  -1.1200000000000002E-002     1.1150264753914371E-009
  -1.0349999999999998E-002     4.1255052603543522E-010
  -9.5000000000000084E-003    -4.5007890802842190E-010
  -8.6500000000000049E-003    -1.4169678017316239E-009
  -7.8000000000000014E-003    -2.4093748173942552E-009
  -6.9499999999999978E-003    -3.3258482416817261E-009
  -6.1000000000000082E-003    -4.0463490749347143E-009
  -5.2500000000000047E-003    -4.4417174633493073E-009
  -4.4000000000000011E-003    -4.3888945652490481E-009
  -3.5499999999999976E-003    -3.7909544286477497E-009
  -2.7000000000000079E-003    -2.5994993436340484E-009
  -1.8500000000000044E-003    -8.3567553911261733E-010
  -1.0000000000000009E-003     1.3946606956697459E-009
  -1.4999999999999736E-004     3.8960382144979685E-009
   6.9999999999999230E-004     6.3920970883091625E-009
   1.5499999999999958E-003     8.5494449018409720E-009
   2.3999999999999994E-003     1.0015619872999541E-008
   3.2500000000000029E-003     1.0467438806070597E-008
   4.0999999999999925E-003     9.6635854570758013E-009
   4.9499999999999961E-003     7.4936372910790781E-009
   5.7999999999999996E-003     4.0152320327820861E-009
   6.6499999999999893E-003    -5.2811046739551159E-010
   7.5000000000000067E-003    -5.7137837881513256E-009
   8.3499999999999963E-003    -1.0973553215549413E-008
   9.1999999999999860E-003    -1.5651797398928316E-008
   1.0050000000000003E-002    -1.9082732652940847E-008
   1.0899999999999993E-002    -2.0677418402630753E-008
   1.1750000000000010E-002    -2.0009144810171798E-008
   1.2600000000000000E-002    -1.6885205613642880E-008
   1.3449999999999990E-002    -1.1394162391091083E-008
   1.4300000000000007E-002    -3.9205831965881789E-009
   1.5149999999999997E-002     4.8766672035902197E-009
   1.5999999999999986E-002     1.4121637331729475E-008
   1.6850000000000004E-002     2.2808336255174359E-008
   1.7699999999999994E-002     2.9907953353975645E-008
   1.8549999999999983E-002     3.4483941678636760E-008
   1.9400000000000001E-002     3.5801879127935363E-008
   2.0249999999999990E-002     3.3421738902701675E-008
   2.1100000000000008E-002     2.7262614455369045E-008
   2.1949999999999997E-002     1.7633100138144888E-008
   2.2799999999999987E-002     5.2241216360230986E-009
   2.3650000000000004E-002    -8.9355344741473057E-009
   2.4499999999999994E-002    -2.3557858211898996E-008
   2.5349999999999984E-002    -3.7202819000403245E-008
   2.6200000000000001E-002    -4.8406759421959770E-008
   2.7049999999999991E-002    -5.5822613476178400E-008
   2.7900000000000008E-002    -5.8361243013231783E-008
   2.8749999999999998E-002    -5.5321476692426183E-008
   2.9599999999999987E-002    -4.6495511391775047E-008
   3.0450000000000005E-002    -3.2236170651663375E-008
   3.1299999999999994E-002    -1.3474281542565627E-008
   3.2149999999999984E-002     8.3222910146940613E-009
   3.3000000000000002E-002     3.1250569398247910E-008
   3.3849999999999991E-002     5.3130856005390149E-008
   3.4700000000000009E-002     7.1709349512558886E-008
   3.5549999999999998E-002     8.4885637972018631E-008
   3.6399999999999988E-002     9.0940810467725524E-008
   3.7250000000000005E-002     8.8740244350748030E-008
   3.8099999999999995E-002     7.7886892654820267E-008
   3.8949999999999985E-002     5.8806245062071229E-008
   3.9800000000000002E-002     3.2751777680372822E-008
   4.0649999999999992E-002     1.7284280434745779E-009
   4.1500000000000009E-002    -3.1659984429503734E-008
   4.2349999999999999E-002    -6.4426275406151956E-008
   4.3199999999999988E-002    -9.3460315567055917E-008
   4.4050000000000006E-002    -1.1581303905988432E-007
   4.4899999999999995E-002    -1.2898090551064113E-007
   4.5749999999999985E-002    -1.3116697718871883E-007
   4.6600000000000003E-002    -1.2149462503766621E-007
   4.7449999999999992E-002    -1.0015088424015856E-007
   4.8299999999999982E-002    -6.8439377790552485E-008
   4.9149999999999999E-002    -2.8727806213112658E-008
   4.9999999999999989E-002     1.5716173033803707E-008
   5.0850000000000006E-002     6.0994824824591333E-008
   5.1699999999999996E-002     1.0293648669315785E-007
   5.2549999999999986E-002     1.3750442439966160E-007
   5.3400000000000003E-002     1.6121398067288124E-007
   5.4249999999999993E-002     1.7150816131219846E-007
   5.5099999999999982E-002     1.6704422770923437E-007
   5.5950000000000000E-002     1.4785332869635269E-007
   5.6799999999999989E-002     1.1535248319279321E-007
   5.7650000000000007E-002     7.2208230241068073E-008
   5.8499999999999996E-002     2.2071283510244975E-008
   5.9349999999999986E-002    -3.0781986181038052E-008
   6.0200000000000004E-002    -8.1856673934764697E-008
   6.1049999999999993E-002    -1.2684812450495080E-007
   6.1899999999999983E-002    -1.6201177779080335E-007
   6.2750000000000000E-002    -1.8446330850447560E-007
   6.3599999999999990E-002    -1.9239097988329331E-007
   6.4450000000000007E-002    -1.8517250884008508E-007
   6.5299999999999997E-002    -1.6339733201582832E-007
   6.6149999999999987E-002    -1.2880009124060402E-007
   6.7000000000000004E-002    -8.4113229587876286E-008
   6.7849999999999994E-002    -3.2848740753210048E-008
   6.8699999999999983E-002     2.0978202236537361E-008
   6.9550000000000001E-002     7.3167017188579370E-008
   7.0399999999999990E-002     1.1966800720849111E-007
   7.1249999999999980E-002     1.5690995207158755E-007
   7.2099999999999997E-002     1.8208848752537547E-007
   7.2949999999999987E-002     1.9338653345645161E-007
   7.3800000000000004E-002     1.9010548149426968E-007
   7.4649999999999994E-002     1.7269531629676110E-007
   7.5499999999999984E-002     1.4268604709288571E-007
   7.6350000000000001E-002     1.0253393089711002E-007
   7.7199999999999991E-002     5.5404607276387178E-008
   7.8049999999999981E-002     4.9182103768697659E-009
   7.8899999999999998E-002    -4.5120505759518087E-008
   7.9749999999999988E-002    -9.0989854360800575E-008
   8.0600000000000005E-002    -1.2930514368841655E-007
   8.1449999999999995E-002    -1.5725205825445808E-007
   8.2299999999999984E-002    -1.7279211253845491E-007
   8.3150000000000002E-002    -1.7483058585235217E-007
   8.3999999999999991E-002    -1.6333101544945228E-007
   8.4849999999999981E-002    -1.3935757980270936E-007
   8.5699999999999998E-002    -1.0502662639179842E-007
   8.6549999999999988E-002    -6.3355835256690951E-008
   8.7400000000000005E-002    -1.8012764292533451E-008
   8.8249999999999995E-002     2.7018972830342265E-008
   8.9099999999999985E-002     6.7821106164995424E-008
   8.9950000000000002E-002     1.0092327727284618E-007
   9.0799999999999992E-002     1.2363777397434405E-007
   9.1649999999999981E-002     1.3430410713715120E-007
   9.2499999999999999E-002     1.3241629404885378E-007
   9.3349999999999989E-002     1.1862559255562110E-007
   9.4200000000000006E-002     9.4630309496788295E-008
   9.5049999999999996E-002     6.2978966704576597E-008
   9.5899999999999985E-002     2.6818404335177140E-008
   9.6750000000000003E-002    -1.0382756732910077E-008
   9.7599999999999992E-002    -4.5113519012480830E-008
   9.8449999999999982E-002    -7.4089768550135196E-008
   9.9299999999999999E-002    -9.4507611687337108E-008
  0.10014999999999999         -1.0427624894665898E-007
  0.10099999999999998         -1.0222113135870633E-007
  0.10185000000000000         -8.8240565557091544E-008
  0.10269999999999999         -6.3390936190995680E-008
  0.10355000000000000         -2.9873473264568578E-008
  0.10439999999999999          9.0993955865345928E-009
  0.10524999999999998          4.9565550622292982E-008
  0.10610000000000000          8.7189338967813317E-008
  0.10694999999999999          1.1771650106109347E-007
  0.10779999999999998          1.3745262365762771E-007
  0.10865000000000000          1.4370153779480814E-007
  0.10949999999999999          1.3510191307429613E-007
  0.11035000000000000          1.1181443344031330E-007
  0.11119999999999999          7.5535278160707055E-008
  0.11204999999999998          2.9336793020843969E-008
  0.11290000000000000         -2.2637670735406612E-008
  0.11374999999999999         -7.5582858062698792E-008
  0.11459999999999998         -1.2449523757268513E-007
  0.11545000000000000         -1.6464011376774363E-007
  0.11629999999999999         -1.9197957020328868E-007
  0.11715000000000000         -2.0353372716947998E-007
  0.11799999999999999         -1.9765242218855549E-007
  0.11884999999999998         -1.7418166885669246E-007
  0.11970000000000000         -1.3451803752085611E-007
  0.12054999999999999         -8.1541678263552740E-008
  0.12139999999999998         -1.9422112049252752E-008
  0.12225000000000000          4.6702793550099269E-008
  0.12309999999999999          1.1115971746430539E-007
  0.12395000000000000          1.6825927141544436E-007
  0.12479999999999999          2.1286645497813922E-007
  0.12564999999999998          2.4096110790404711E-007
  0.12650000000000000          2.5012291292667961E-007
  0.12734999999999999          2.3987245662644895E-007
  0.12819999999999998          2.1181760226826588E-007
  0.12905000000000000          1.6955569816541974E-007
  0.12989999999999999          1.1833155761596700E-007
  0.13074999999999998          6.4481317116541879E-008
  0.13159999999999999          1.4708179960553669E-008
  0.13245000000000001         -2.4693987800397406E-008
  0.13329999999999997         -4.8600746466011962E-008
  0.13414999999999999         -5.3688183787643788E-008
  0.13500000000000001         -3.8829838351777156E-008
  0.13584999999999997         -5.2139885046414172E-009
  0.13669999999999999          4.3848752717863161E-008
  0.13755000000000001          1.0340255236157960E-007
  0.13839999999999997          1.6755392634168387E-007
  0.13924999999999998          2.3031883463018888E-007
  0.14010000000000000          2.8647797936314958E-007
  0.14094999999999996          3.3231880792933280E-007
  0.14179999999999998          3.6617707504852296E-007
  0.14265000000000000          3.8866854925164187E-007
  0.14350000000000002          4.0264684048597842E-007
  0.14434999999999998          4.1279102018069195E-007
  0.14520000000000000          4.2492867113212907E-007
  0.14605000000000001          4.4516929866107025E-007
  0.14689999999999998          4.7893417038106175E-007
  0.14774999999999999          5.3011204612927786E-007
  0.14860000000000001          6.0031332633492895E-007
  0.14944999999999997          6.8851704212995120E-007
  0.15029999999999999          7.9118863090149789E-007
  0.15115000000000001          9.0269662053778786E-007
  0.15199999999999997          1.0161497035925405E-006
  0.15284999999999999          1.1245582117737073E-006
  0.15370000000000000          1.2219265863690351E-006
  0.15454999999999997          1.3045349374983094E-006
  0.15539999999999998          1.3716981332999120E-006
  0.15625000000000000          1.4261734624588471E-006
  0.15709999999999996          1.4746698509928661E-006
  0.15794999999999998          1.5272868162856464E-006
  0.15880000000000000          1.5964890588027628E-006
  0.15965000000000001          1.6962098720948827E-006
  0.16049999999999998          1.8407061759191541E-006
  0.16134999999999999          2.0434211624134276E-006
  0.16220000000000001          2.3158195622052924E-006
  0.16304999999999997          2.6668810494770684E-006
  0.16389999999999999          3.1029913340314629E-006
  0.16475000000000001          3.6280264561363097E-006
  0.16559999999999997          4.2434610244591598E-006
  0.16644999999999999          4.9495267685976287E-006
  0.16730000000000000          5.7460746830809811E-006
  0.16814999999999997          6.6340881292859001E-006
  0.16899999999999998          7.6157814162030697E-006
  0.16985000000000000          8.6955525720421260E-006
  0.17069999999999996          9.8815256575775202E-006
  0.17154999999999998          1.1186360273163361E-005
  0.17240000000000000          1.2627729184232516E-005
  0.17325000000000002          1.4229048596386296E-005
  0.17409999999999998          1.6020694667235806E-005
  0.17494999999999999          1.8040146622020060E-005
  0.17580000000000001          2.0330288592019816E-005
  0.17664999999999997          2.2939179624934950E-005
  0.17749999999999999          2.5919229268662452E-005
  0.17835000000000001          2.9324452808451290E-005
  0.17919999999999997          3.3209242154626510E-005
  0.18004999999999999          3.7625154191568306E-005
  0.18090000000000001          4.2618629027793331E-005
  0.18174999999999997          4.8231671847070171E-005
  0.18259999999999998          5.4497771057678145E-005
  0.18345000000000000          6.1443131499495037E-005
  0.18429999999999996          6.9088800106103089E-005
  0.18514999999999998          7.7450512896742139E-005
  0.18600000000000000          8.6540425318949854E-005
  0.18684999999999996          9.6370491529343161E-005
  0.18769999999999998          1.0695732913435589E-004
  0.18855000000000000          1.1832250073728040E-004
  0.18940000000000001          1.3049137312673041E-004
  0.19024999999999997          1.4349081518133370E-004
  0.19109999999999999          1.5734493955898480E-004
  0.19195000000000001          1.7206913776930666E-004
  0.19279999999999997          1.8766629093388488E-004
  0.19364999999999999          2.0412508406444327E-004
  0.19450000000000001          2.2140330543414215E-004
  0.19534999999999997          2.3942766484029025E-004
  0.19619999999999999          2.5810341065277272E-004
  0.19705000000000000          2.7729948967351967E-004
  0.19789999999999996          2.9685025169121364E-004
  0.19874999999999998          3.1656221612586384E-004
  0.19960000000000000          3.3621130617612942E-004
  0.20044999999999996          3.5555694542489910E-004
  0.20129999999999998          3.7433751228259436E-004
  0.20215000000000000          3.9226244963616179E-004
  0.20300000000000001          4.0902651849926977E-004
  0.20384999999999998          4.2431341170057701E-004
  0.20469999999999999          4.3779877047552484E-004
  0.20555000000000001          4.4914339665909326E-004
  0.20639999999999997          4.5800780522975974E-004
  0.20724999999999999          4.6404628062391307E-004
  0.20810000000000001          4.6690883808864480E-004
  0.20894999999999997          4.6626536126586189E-004
  0.20979999999999999          4.6179002289715852E-004
  0.21065000000000000          4.5316764319514448E-004
  0.21149999999999997          4.4011006458195406E-004
  0.21234999999999998          4.2234268806597115E-004
  0.21320000000000000          3.9962913831892335E-004
  0.21404999999999996          3.7175959597025404E-004
  0.21489999999999998          3.3854831643238484E-004
  0.21575000000000000          2.9985768486901870E-004
  0.21659999999999996          2.5560029240916023E-004
  0.21744999999999998          2.0573117568862268E-004
  0.21829999999999999          1.5025610523346913E-004
  0.21915000000000001          8.9265000668197004E-005
  0.21999999999999997          2.2905248603364198E-005
  0.22084999999999999         -4.8610795618672531E-005
  0.22170000000000001         -1.2497945712699088E-004
  0.22254999999999997         -2.0582547332290737E-004
  0.22339999999999999         -2.9069932381390028E-004
  0.22425000000000000         -3.7907304865715514E-004
  0.22509999999999997         -4.7034280487887124E-004
  0.22594999999999998         -5.6382784157519184E-004
  0.22680000000000000         -6.5880525150777678E-004
  0.22764999999999996         -7.5451129030804564E-004
  0.22849999999999998         -8.5014218094531756E-004
  0.22935000000000000         -9.4486721885402556E-004
  0.23019999999999996         -1.0378471454840488E-003
  0.23104999999999998         -1.1282295191842036E-003
  0.23190000000000000         -1.2151559653327012E-003
  0.23275000000000001         -1.2977622865349985E-003
  0.23359999999999997         -1.3751905579564398E-003
  0.23444999999999999         -1.4466008254840138E-003
  0.23530000000000001         -1.5111849276455837E-003
  0.23614999999999997         -1.5681871536156013E-003
  0.23699999999999999         -1.6168892729879066E-003
  0.23785000000000001         -1.6566052732709690E-003
  0.23869999999999997         -1.6867229150767419E-003
  0.23954999999999999         -1.7067104972675337E-003
  0.24040000000000000         -1.7161171852257695E-003
  0.24124999999999996         -1.7145861156430565E-003
  0.24209999999999998         -1.7018574612016062E-003
  0.24295000000000000         -1.6777828392994254E-003
  0.24379999999999996         -1.6422947521413551E-003
  0.24464999999999998         -1.5954814678961584E-003
  0.24550000000000000         -1.5375230407572219E-003
  0.24634999999999996         -1.4686381829023152E-003
  0.24719999999999998         -1.3891756104927235E-003
  0.24804999999999999         -1.2995561427473108E-003
  0.24890000000000001         -1.2002593843546917E-003
  0.24974999999999997         -1.0918939902471818E-003
  0.25059999999999999         -9.7512856772114214E-004
  0.25145000000000001         -8.5069810874163982E-004
  0.25229999999999997         -7.1943958565498479E-004
  0.25314999999999999         -5.8224057206253854E-004
  0.25400000000000000         -4.4006154735436572E-004
  0.25484999999999997         -2.9392889524543269E-004
  0.25569999999999998         -1.4490222872595238E-004
  0.25655000000000000          5.9539986339745712E-006
  0.25739999999999996          1.5754710765021262E-004
  0.25824999999999998          3.0879100959195320E-004
  0.25910000000000000          4.5863127416421307E-004
  0.25994999999999996          6.0601528174837420E-004
  0.26079999999999998          7.4993599427423583E-004
  0.26164999999999999          8.8939885198654285E-004
  0.26249999999999996          1.0234479112739862E-003
  0.26334999999999997          1.1512062351954142E-003
  0.26419999999999999          1.2718411541180598E-003
  0.26505000000000001          1.3845770852280405E-003
  0.26589999999999997          1.4886802021761487E-003
  0.26674999999999999          1.5834975914234461E-003
  0.26760000000000000          1.6684488585078120E-003
  0.26844999999999997          1.7430280243850695E-003
  0.26929999999999998          1.8068479952911428E-003
  0.27015000000000000          1.8596249950502373E-003
  0.27099999999999996          1.9011576355853807E-003
  0.27184999999999998          1.9313679509775240E-003
  0.27270000000000000          1.9502599390328779E-003
  0.27354999999999996          1.9578745485254651E-003
  0.27439999999999998          1.9543327796156186E-003
  0.27524999999999999          1.9398564911291536E-003
  0.27609999999999996          1.9147363694802977E-003
  0.27694999999999997          1.8793038133414854E-003
  0.27779999999999999          1.8339738750998945E-003
  0.27865000000000001          1.7792352439318882E-003
  0.27949999999999997          1.7156298151283782E-003
  0.28034999999999999          1.6438059332629499E-003
  0.28120000000000001          1.5644406370222670E-003
  0.28204999999999997          1.4782006656367298E-003
  0.28289999999999998          1.3858512544399598E-003
  0.28375000000000000          1.2881950897407465E-003
  0.28459999999999996          1.1860356924506721E-003
  0.28544999999999998          1.0802101315779218E-003
  0.28630000000000000          9.7159742520749914E-004
  0.28714999999999996          8.6104753509641746E-004
  0.28799999999999998          7.4935236434737476E-004
  0.28885000000000000          6.3730424699541728E-004
  0.28969999999999996          5.2564561898640991E-004
  0.29054999999999997          4.1503268537785892E-004
  0.29139999999999999          3.0611423068264531E-004
  0.29224999999999995          1.9952418373884838E-004
  0.29309999999999997          9.5860914294077114E-005
  0.29394999999999999         -4.2970630323640535E-006
  0.29480000000000001         -1.0042842752539504E-004
  0.29564999999999997         -1.9201715961209614E-004
  0.29649999999999999         -2.7857747362286549E-004
  0.29735000000000000         -3.5970930494025148E-004
  0.29819999999999997         -4.3507179694408720E-004
  0.29904999999999998         -5.0437293781813836E-004
  0.29990000000000000         -5.6740022068004219E-004
  0.30074999999999996         -6.2401094938082714E-004
  0.30159999999999998         -6.7412622648360839E-004
  0.30245000000000000         -7.1772621379957019E-004
  0.30329999999999996         -7.5485267885351385E-004
  0.30414999999999998         -7.8560465091217363E-004
  0.30499999999999999         -8.1013737937798828E-004
  0.30584999999999996         -8.2864774677149106E-004
  0.30669999999999997         -8.4136076648528928E-004
  0.30754999999999999         -8.4853262940526525E-004
  0.30840000000000001         -8.5043466954898327E-004
  0.30924999999999997         -8.4733870874286442E-004
  0.31009999999999999         -8.3952737408016708E-004
  0.31095000000000000         -8.2730956842810366E-004
  0.31179999999999997         -8.1101620934641760E-004
  0.31264999999999998         -7.9100060195755122E-004
  0.31350000000000000         -7.6763614340750064E-004
  0.31434999999999996         -7.4132184385024074E-004
  0.31519999999999998         -7.1246665222526808E-004
  0.31605000000000000         -6.8147373052502647E-004
  0.31689999999999996         -6.4872604816084139E-004
  0.31774999999999998         -6.1458641470631841E-004
  0.31859999999999999         -5.7938971896401000E-004
  0.31944999999999996         -5.4343880632142655E-004
  0.32029999999999997         -5.0702388833040023E-004
  0.32114999999999999         -4.7043507241229351E-004
  0.32199999999999995         -4.3395335853851897E-004
  0.32284999999999997         -3.9786408371029661E-004
  0.32369999999999999         -3.6245427312478690E-004
  0.32455000000000001         -3.2797926119715868E-004
  0.32539999999999997         -2.9465915511699532E-004
  0.32624999999999998         -2.6266541471032666E-004
  0.32710000000000000         -2.3211304568975999E-004
  0.32794999999999996         -2.0306640552134267E-004
  0.32879999999999998         -1.7555847644638040E-004
  0.32965000000000000         -1.4961089509409758E-004
  0.33049999999999996         -1.2523719879937786E-004
  0.33134999999999998         -1.0246531416836823E-004
  0.33220000000000000         -8.1333671800091294E-005
  0.33304999999999996         -6.1882963403222068E-005
  0.33389999999999997         -4.4145367028184908E-005
  0.33474999999999999         -2.8126590490803465E-005
  0.33559999999999995         -1.3798570313395223E-005
  0.33644999999999997         -1.0938677695672928E-006
  0.33729999999999999          1.0091956102419237E-005
  0.33815000000000001          1.9880712193153155E-005
  0.33899999999999997          2.8391171388418238E-005
  0.33984999999999999          3.5730324443273827E-005
  0.34070000000000000          4.1983804547517361E-005
  0.34154999999999996          4.7213249758585324E-005
  0.34239999999999998          5.1471509048635793E-005
  0.34325000000000000          5.4801064751534571E-005