 -0.12000000000000000          0.0000000000000000
 -0.11914999999999999          0.0000000000000000
 -0.11830000000000000          0.0000000000000000
 -0.11745000000000000          0.0000000000000000
 -0.11660000000000000          0.0000000000000000
 -0.11574999999999999          0.0000000000000000
 -0.11490000000000000          0.0000000000000000
 -0.11405000000000000          0.0000000000000000
 -0.11320000000000000          0.0000000000000000
 -0.11234999999999999          0.0000000000000000
 -0.11150000000000000          0.0000000000000000
 -0.11065000000000000          3.5443461659000351E-027
 -0.10979999999999999          3.6436464464441317E-026
 -0.10894999999999999          4.0277357424821775E-026
 -0.10810000000000000         -1.8517441585436272E-024
 -0.10725000000000000         -1.9907802235157067E-023
 -0.10639999999999999         -1.2230200062169635E-022
 -0.10554999999999999         -5.4444755014986385E-022
 -0.10470000000000000         -1.8912691848763043E-021
 -0.10385000000000000         -5.2432971443032968E-021
 -0.10299999999999999         -1.1378262782791720E-020
 -0.10214999999999999         -1.7212933551763904E-020
 -0.10130000000000000         -6.5758996512599255E-021
 -0.10045000000000000          6.6155861699780909E-020
  -9.9599999999999994E-002     2.9256066535213913E-019
  -9.8750000000000004E-002     7.9883382669946885E-019
  -9.7900000000000001E-002     1.6448902726760609E-018
  -9.7049999999999997E-002     2.5429392693934985E-018
  -9.6199999999999994E-002     2.3292140075069206E-018
  -9.5349999999999990E-002    -1.7129540304296708E-018
  -9.4500000000000001E-002    -1.4183929030117708E-017
  -9.3649999999999997E-002    -4.0421869663222043E-017
  -9.2799999999999994E-002    -8.2111083079927132E-017
  -9.1950000000000004E-002    -1.2789020276389930E-016
  -9.1100000000000000E-002    -1.3899317350849868E-016
  -9.0249999999999997E-002    -3.4782159238587203E-017
  -8.9399999999999993E-002     3.0861558284062055E-016
  -8.8549999999999990E-002     1.0233570001384181E-015
  -8.7700000000000000E-002     2.1497911631443471E-015
  -8.6849999999999997E-002     3.4522154958155405E-015
  -8.5999999999999993E-002     4.1706467214975852E-015
  -8.5150000000000003E-002     2.8074223478268236E-015
  -8.4300000000000000E-002    -2.8413361521170921E-015
  -8.3449999999999996E-002    -1.5094099724307202E-014
  -8.2600000000000007E-002    -3.4900840308021950E-014
  -8.1749999999999989E-002    -5.9330030297827549E-014
  -8.0900000000000000E-002    -7.8408912489550452E-014
  -8.0049999999999996E-002    -7.2588615535996237E-014
  -7.9199999999999993E-002    -1.3204614803801359E-014
  -7.8350000000000003E-002     1.3084552593591872E-013
  -7.7499999999999999E-002     3.7717348810177772E-013
  -7.6649999999999996E-002     7.0389944702960880E-013
  -7.5800000000000006E-002     1.0177676362963339E-012
  -7.4949999999999989E-002     1.1282997683828982E-012
  -7.4099999999999999E-002     7.4866807469437361E-013
  -7.3249999999999996E-002    -4.5014528811696815E-013
  -7.2399999999999992E-002    -2.7081784028934767E-012
  -7.1550000000000002E-002    -5.9627230337284514E-012
  -7.0699999999999999E-002    -9.5839724551948007E-012
  -6.9849999999999995E-002    -1.2146950483294257E-011
  -6.9000000000000006E-002    -1.1385811438835979E-011
  -6.8149999999999988E-002    -4.5142505220755688E-012
  -6.7299999999999999E-002     1.0923903351549585E-011
  -6.6449999999999995E-002     3.5624490357370533E-011
  -6.5599999999999992E-002     6.6693365567829753E-011
  -6.4750000000000002E-002     9.5924943807465118E-011
  -6.3899999999999998E-002     1.0904616632703880E-010
  -6.3049999999999995E-002     8.7013183222552570E-011
  -6.2199999999999998E-002     1.0370708884956014E-011
  -6.1350000000000002E-002    -1.3289053919884662E-010
  -6.0499999999999998E-002    -3.3670814062606556E-010
  -5.9650000000000002E-002    -5.6595966156254647E-010
  -5.8799999999999998E-002    -7.4933911064302538E-010
  -5.7950000000000002E-002    -7.8164253620780469E-010
  -5.7099999999999998E-002    -5.4095108380782207E-010
  -5.6249999999999994E-002     7.6069939171075128E-011
  -5.5400000000000005E-002     1.1025121178057991E-009
  -5.4550000000000001E-002     2.4423381329086667E-009
  -5.3699999999999998E-002     3.8217962822063506E-009
  -5.2849999999999994E-002     4.7754457715145645E-009
  -5.2000000000000005E-002     4.6928608771093909E-009
  -5.1150000000000001E-002     2.9452374966754686E-009
  -5.0299999999999997E-002    -9.0651301114565112E-010
  -4.9449999999999994E-002    -6.8485682984600059E-009
  -4.8600000000000004E-002    -1.4156108586588103E-008
  -4.7750000000000001E-002    -2.1231425321225314E-008
  -4.6899999999999997E-002    -2.5644812418481976E-008
  -4.6049999999999994E-002    -2.4472166350091898E-008
  -4.5200000000000004E-002    -1.4972405891100472E-008
  -4.4350000000000001E-002     4.4422514744392821E-009
  -4.3499999999999997E-002     3.3108369501562059E-008
  -4.2649999999999993E-002     6.7171768188150389E-008
  -4.1800000000000004E-002     9.9177625830253747E-008
  -4.0950000000000000E-002     1.1856789272131127E-007
  -4.0099999999999997E-002     1.1335485740648904E-007
  -3.9249999999999993E-002     7.2998972376214509E-008
  -3.8400000000000004E-002    -7.8324976493188590E-009
  -3.7550000000000000E-002    -1.2535346433293102E-007
  -3.6699999999999997E-002    -2.6367211380744222E-007
  -3.5850000000000007E-002    -3.9398459165008346E-007
  -3.5000000000000003E-002    -4.7708024025308207E-007
  -3.4150000000000000E-002    -4.6979326137698763E-007
  -3.3299999999999996E-002    -3.3516340211281647E-007
  -3.2450000000000007E-002    -5.4941691625429826E-008
  -3.1600000000000003E-002     3.5808781049983160E-007
  -3.0750000000000000E-002     8.5137096897481205E-007
  -2.9899999999999996E-002     1.3310868480624477E-006
  -2.9050000000000006E-002     1.6708909578309877E-006
  -2.8200000000000003E-002     1.7322183214813506E-006
  -2.7349999999999999E-002     1.3948738512183203E-006
  -2.6499999999999996E-002     5.9355546214293811E-007
  -2.5650000000000006E-002    -6.4699200401200935E-007
  -2.4800000000000003E-002    -2.1874362179409566E-006
  -2.3949999999999999E-002    -3.7694035125514675E-006
  -2.3099999999999996E-002    -5.0384132499290994E-006
  -2.2250000000000006E-002    -5.5969791827901403E-006
  -2.1400000000000002E-002    -5.0840599040553887E-006
  -2.0549999999999999E-002    -3.2696446500496780E-006
  -1.9699999999999995E-002    -1.4655204428896286E-007
  -1.8850000000000006E-002     4.0027018106987372E-006
  -1.8000000000000002E-002     8.5860631240427433E-006
  -1.7149999999999999E-002     1.2746114580113829E-005
  -1.6299999999999995E-002     1.5474814198309405E-005
  -1.5450000000000005E-002     1.5791002928976572E-005
  -1.4600000000000002E-002     1.2957012489812869E-005
  -1.3749999999999998E-002     6.6965046308306846E-006
  -1.2899999999999995E-002    -2.6331216309762103E-006
  -1.2050000000000005E-002    -1.3960738265157448E-005
  -1.1200000000000002E-002    -2.5551148655952687E-005
  -1.0349999999999998E-002    -3.5201761316593986E-005
  -9.5000000000000084E-003    -4.0576122103048307E-005
  -8.6500000000000049E-003    -3.9634076349116225E-005
  -7.8000000000000014E-003    -3.1090440078935677E-005
  -6.9499999999999978E-003    -1.4816566681419653E-005
  -6.1000000000000082E-003     7.9047612862164691E-006
  -5.2500000000000047E-003     3.4345898747947399E-005
  -4.4000000000000011E-003     6.0566248024521056E-005
  -3.5499999999999976E-003     8.1907962659245464E-005
  -2.7000000000000079E-003     9.3703554878761490E-005
  -1.8500000000000044E-003     9.2095956605202039E-005
  -1.0000000000000009E-003     7.4837896516140163E-005
  -1.4999999999999736E-004     4.1924879062621280E-005
   6.9999999999999230E-004    -4.0700833649520290E-006
   1.5499999999999958E-003    -5.8052134227566683E-005
   2.3999999999999994E-003    -1.1288247471281570E-004
   3.2500000000000029E-003    -1.6024034474838091E-004
   4.0999999999999925E-003    -1.9176190884993662E-004
   4.9499999999999961E-003    -2.0029637824934489E-004
   5.7999999999999996E-003    -1.8109291889654495E-004
   6.6499999999999893E-003    -1.3273445350358293E-004
   7.5000000000000067E-003    -5.7671618926104070E-005
   8.3499999999999963E-003     3.7733579138967535E-005
   9.1999999999999860E-003     1.4367055333332934E-004
   1.0050000000000003E-002     2.4779742498091126E-004
   1.0899999999999993E-002     3.3650365556501703E-004
   1.1750000000000010E-002     3.9637508173915274E-004
   1.2600000000000000E-002     4.1571123001582846E-004
   1.3449999999999990E-002     3.8595851792299322E-004
   1.4300000000000007E-002     3.0294792378593411E-004
   1.5149999999999997E-002     1.6785438099177873E-004
   1.5999999999999986E-002    -1.2189426969232285E-005
   1.6850000000000004E-002    -2.2389152898012992E-004
   1.7699999999999994E-002    -4.4808825182659085E-004
   1.8549999999999983E-002    -6.6061709811088005E-004
   1.9400000000000001E-002    -8.3387237301257183E-004
   2.0249999999999990E-002    -9.3911337589554277E-004
   2.1100000000000008E-002    -9.4952294902222686E-004
   2.1949999999999997E-002    -8.4388902308933015E-004
   2.2799999999999987E-002    -6.1061630470914824E-004
   2.3650000000000004E-002    -2.5159603551341077E-004
   2.4499999999999994E-002     2.1469765081944984E-004
   2.5349999999999984E-002     7.5160367369051472E-004
   2.6200000000000001E-002     1.3048553665877918E-003
   2.7049999999999991E-002     1.8058729296675593E-003
   2.7900000000000008E-002     2.1779773907088244E-003
   2.8749999999999998E-002     2.3452861581072680E-003
   2.9599999999999987E-002     2.2435468649023706E-003
   3.0450000000000005E-002     1.8316547455518085E-003
   3.1299999999999994E-002     1.1022219819368892E-003
   3.2149999999999984E-002     8.9370667016620695E-005
   3.3000000000000002E-002    -1.1279947225073985E-003
   3.3849999999999991E-002    -2.4287685873260363E-003
   3.4700000000000009E-002    -3.6587408120601962E-003
   3.5549999999999998E-002    -4.6459667034957778E-003
   3.6399999999999988E-002    -5.2211552550961420E-003
   3.7250000000000005E-002    -5.2409109697993490E-003
   3.8099999999999995E-002    -4.6108951652118315E-003
   3.8949999999999985E-002    -3.3056510842906909E-003
   3.9800000000000002E-002    -1.3819047176285213E-003
   4.0649999999999992E-002     1.0172839461930888E-003
   4.1500000000000009E-002     3.6691227304091237E-003
   4.2349999999999999E-002     6.2887403895270262E-003
   4.3199999999999988E-002     8.5567238298085210E-003
   4.4050000000000006E-002     1.0153978720939642E-002
   4.4899999999999995E-002     1.0800204759108055E-002
   4.5749999999999985E-002     1.0291599493121525E-002
   4.6600000000000003E-002     8.5331952104328035E-003
   4.7449999999999992E-002     5.5616389965807500E-003
   4.8299999999999982E-002     1.5551180624313174E-003
   4.9149999999999999E-002    -3.1716035691154204E-003
   4.9999999999999989E-002    -8.1875182964079203E-003
   5.0850000000000006E-002    -1.2980005629469374E-002
   5.1699999999999996E-002    -1.7001150563237897E-002
   5.2549999999999986E-002    -1.9721991768399848E-002
   5.3400000000000003E-002    -2.0689836879469865E-002
   5.4249999999999993E-002    -1.9583400655670973E-002
   5.5099999999999982E-002    -1.6260262511807934E-002
   5.5950000000000000E-002    -1.0791387299426806E-002
   5.6799999999999989E-002    -3.4782089336424663E-003
   5.7650000000000007E-002     5.1512967918431463E-003
   5.8499999999999996E-002     1.4369493642605580E-002
   5.9349999999999986E-002     2.3299115257434194E-002
   6.0200000000000004E-002     3.0984417087110035E-002
   6.1049999999999993E-002     3.6479134337289700E-002
   6.1899999999999983E-002     3.8944495350487066E-002
   6.2750000000000000E-002     3.7748692252236794E-002
   6.3599999999999990E-002     3.2557583071246524E-002
   6.4450000000000007E-002     2.3405930087560287E-002
   6.5299999999999997E-002     1.0739052546085117E-002
   6.6149999999999987E-002    -4.5834912143129913E-003
   6.7000000000000004E-002    -2.1327322905257969E-002
   6.7849999999999994E-002    -3.7966992200206079E-002
   6.8699999999999983E-002    -5.2810251024597486E-002
   6.9550000000000001E-002    -6.4154197570793409E-002
   7.0399999999999990E-002    -7.0459945392645176E-002
   7.1249999999999980E-002    -7.0529242998684710E-002
   7.2099999999999997E-002    -6.3663711718797075E-002
   7.2949999999999987E-002    -4.9788497176258252E-002
   7.3800000000000004E-002    -2.9523198865020934E-002
   7.4649999999999994E-002    -4.1876171519021448E-003
   7.5499999999999984E-002     2.4264000034517685E-002
   7.6350000000000001E-002     5.3379814172525603E-002
   7.7199999999999991E-002     8.0409886522623916E-002
   7.8049999999999981E-002    0.10255273097978794
   7.8899999999999998E-002    0.11722700592971254
   7.9749999999999988E-002    0.12234262664307154
   8.0600000000000005E-002    0.11654330582996275
   8.1449999999999995E-002     9.9394849752346692E-002
   8.2299999999999984E-002     7.1496243529530490E-002
   8.3150000000000002E-002     3.4498893623971218E-002
   8.3999999999999991E-002    -8.9736836949363685E-003
   8.4849999999999981E-002    -5.5502742844877689E-002
   8.5699999999999998E-002   -0.10113578588024159
   8.6549999999999988E-002   -0.14171203343233735
   8.7400000000000005E-002   -0.17322470483385938
   8.8249999999999995E-002   -0.19218851078524657
   8.9099999999999985E-002   -0.19598025731153623
   8.9950000000000002E-002   -0.18312098531360760
   9.0799999999999992E-002   -0.15347358532881397
   9.1649999999999981E-002   -0.10833534364540151
   9.2499999999999999E-002    -5.0413428077333830E-002
   9.3349999999999989E-002     1.6319483381938702E-002
   9.4200000000000006E-002     8.6883313417701044E-002
   9.5049999999999996E-002    0.15564640627486659
   9.5899999999999985E-002    0.21675505189482899
   9.6750000000000003E-002    0.26460579915717697
   9.7599999999999992E-002    0.29432412386124818
   9.8449999999999982E-002    0.30221047667471429
   9.9299999999999999E-002    0.28611580866515668
  0.10014999999999999         0.24571076558655944
  0.10099999999999998         0.18262116996462291
  0.10185000000000000         0.10041048218718344
  0.10269999999999999          4.4030224214474971E-003
  0.10355000000000000         -9.8645849397739016E-002
  0.10439999999999999        -0.20101288799092754
  0.10524999999999998        -0.29457185650838325
  0.10610000000000000        -0.37141806794942067
  0.10694999999999999        -0.42450637930203666
  0.10779999999999998        -0.44825081386367338
  0.10865000000000000        -0.43903718528991087
  0.10949999999999999        -0.39560629430521338
  0.11035000000000000        -0.31927060491304782
  0.11119999999999999        -0.21394235533280517
  0.11204999999999998         -8.5962415999875585E-002
  0.11290000000000000          5.6265781823425676E-002
  0.11374999999999999         0.20281801302839386
  0.11459999999999998         0.34293225150587220
  0.11545000000000000         0.46578727306883666
  0.11629999999999999         0.56132029915999515
  0.11715000000000000         0.62102193480118018
  0.11799999999999999         0.63864581378542296
  0.11884999999999998         0.61077246297021059
  0.11970000000000000         0.53718203685765753
  0.12054999999999999         0.42099787671511502
  0.12139999999999998         0.26858505928136256
  0.12225000000000000          8.9205300058828291E-002
  0.12309999999999999        -0.10554919316485180
  0.12395000000000000        -0.30250833058120824
  0.12479999999999999        -0.48780991693980558
  0.12564999999999998        -0.64785854990287417
  0.12650000000000000        -0.77029399978141855
  0.12734999999999999        -0.84490345610624107
  0.12819999999999998        -0.86441371616999974
  0.12905000000000000        -0.82510992000452688
  0.12989999999999999        -0.72723420431517194
  0.13074999999999998        -0.57512606021635959
  0.13159999999999999        -0.37708746385010916
  0.13245000000000001        -0.14496475590227906
  0.13329999999999997         0.10653790884595668
  0.13414999999999999         0.36078071276959001
  0.13500000000000001         0.60029244959252315
  0.13584999999999997         0.80798703232870339
  0.13669999999999999         0.96840708113979090
  0.13755000000000001          1.0689018070749845
  0.13839999999999997          1.1006444507592270
  0.13924999999999998          1.0594055283690251
  0.14010000000000000         0.94600529779850673
  0.14094999999999996         0.76640481323605414
  0.14179999999999998         0.53140572041470091
  0.14265000000000000         0.25597726618923788
  0.14350000000000002         -4.1754607541792534E-002
  0.14434999999999998        -0.34178195018095808
  0.14520000000000000        -0.62366222622092349
  0.14605000000000001        -0.86802285556155967
  0.14689999999999998         -1.0580068444498434
  0.14774999999999999         -1.1805398717276476
  0.14860000000000001         -1.2273117516090128
  0.14944999999999997         -1.1953863140284555
  0.15029999999999999         -1.0873935625702646
  0.15115000000000001        -0.91127623750199671
  0.15199999999999997        -0.67962528610906625
  0.15284999999999999        -0.40866003523522110
  0.15370000000000000        -0.11694575459294497
  0.15454999999999997         0.17603198276839629
  0.15539999999999998         0.45131601086331846
  0.15625000000000000         0.69182396236138466
  0.15709999999999996         0.88349012614878508
  0.15794999999999998          1.0161217711169785
  0.15880000000000000          1.0839221779426775
  0.15965000000000001          1.0856646401243522
  0.16049999999999998          1.0245283167102290
  0.16134999999999999         0.90763771085747258
  0.16220000000000001         0.74535513543727216
  0.16304999999999997         0.55039347775423708
  0.16389999999999999         0.33681836417086047
  0.16475000000000001         0.11900947422709696
  0.16559999999999997         -8.9351743603062556E-002
  0.16644999999999999        -0.27620093676547358
  0.16730000000000000        -0.43185882495420791
  0.16814999999999997        -0.54959659666870775
  0.16899999999999998        -0.62595878923748383
  0.16985000000000000        -0.66082105920637113
  0.17069999999999996        -0.65718130976765932
  0.17154999999999998        -0.62070169199358549
  0.17240000000000000        -0.55904594923418516
  0.17325000000000002        -0.48107393429677830
  0.17409999999999998        -0.39596987418865676
  0.17494999999999999        -0.31238541019196131
  0.17580000000000001        -0.23767868809277565
  0.17664999999999997        -0.17731141904340050
  0.17749999999999999        -0.13445630832879216
  0.17835000000000001        -0.10983846422024129
  0.17919999999999997        -0.10181032514842117
  0.18004999999999999        -0.10664319110533253
  0.18090000000000001        -0.11899638616926653
  0.18174999999999997        -0.13251454477924779
  0.18259999999999998        -0.14049659378260138
  0.18345000000000000        -0.13657978309956126
  0.18429999999999996        -0.11537915135034096
  0.18514999999999998         -7.3041289961741931E-002
  0.18600000000000000         -7.6650962676177332E-003
  0.18684999999999996          8.0433218508324605E-002
  0.18769999999999998         0.18862655042834495
  0.18855000000000000         0.31206113649717321
  0.18940000000000001         0.44390492463636444
  0.19024999999999997         0.57574134613633421
  0.19109999999999999         0.69808168963285022
  0.19195000000000001         0.80096597804137515
  0.19279999999999997         0.87461736622071429
  0.19364999999999999         0.91010988940237147
  0.19450000000000001         0.90002254290842654
  0.19534999999999997         0.83903538538180367
  0.19619999999999999         0.72443344314169089
  0.19705000000000000         0.55646967353226118
  0.19789999999999996         0.33855130913790399
  0.19874999999999998          7.7197935190331440E-002
  0.19960000000000000        -0.21825764448439941
  0.20044999999999996        -0.53626475551793429
  0.20129999999999998        -0.86391729073640189
  0.20215000000000000         -1.1880864383765490
  0.20300000000000001         -1.4967580791969548
  0.20384999999999998         -1.7804619998360991
  0.20469999999999999         -2.0336889513892666
  0.20555000000000001         -2.2562060215888176
  0.20639999999999997         -2.4540571666393540
  0.20724999999999999         -2.6402242472214570
  0.20810000000000001         -2.8348770876922038
  0.20894999999999997         -3.0651260618680203
  0.20979999999999999         -3.3644055512628253
  0.21065000000000000         -3.7715243401868603
  0.21149999999999997         -4.3294370868058900
  0.21234999999999998         -5.0840967347960415
  0.21320000000000000         -6.0832809756587283
  0.21404999999999996         -7.3757100759308596
  0.21489999999999998         -9.0106173236372324
  0.21575000000000000         -11.037810124048493
  0.21659999999999996         -13.508272211553004
  0.21744999999999998         -16.475506773277182
  0.21829999999999999         -19.997416323067458
  0.21915000000000001         -24.138945526397638
  0.21999999999999997         -28.975041346627314
  0.22084999999999999         -34.594123237703371
  0.22170000000000001         -41.101705084375332
  0.22254999999999997         -48.623843744130347
  0.22339999999999999         -57.310697544418730
  0.22425000000000000         -67.338856621611967
  0.22509999999999997         -78.913987576212421
  0.22594999999999998         -92.271581202691607
  0.22680000000000000         -107.67857364941901
  0.22764999999999996         -125.43226259661397
  0.22849999999999998         -145.86128948894304
  0.22935000000000000         -169.32389232038238
  0.23019999999999996         -196.20799176962851
  0.23104999999999998         -226.93122145368730
  0.23190000000000000         -261.94041018906717
  0.23275000000000001         -301.71191000406657
  0.23359999999999997         -346.75451022698707
  0.23444999999999999         -397.60888409291192
  0.23530000000000001         -454.85012159490532
  0.23614999999999997         -519.09120079494949
  0.23699999999999999         -590.98353837164848
  0.23785000000000001         -671.21893296551764
  0.23869999999999997         -760.53078927231184
  0.23954999999999999         -859.69483165420650
  0.24040000000000000         -969.52544349100458
  0.24124999999999996         -1090.8758660730930
  0.24209999999999998         -1224.6301558381278
  0.24295000000000000         -1371.6987771285244
  0.24379999999999996         -1533.0107522842288
  0.24464999999999998         -1709.5059165922053
  0.24550000000000000         -1902.1218761666339
  0.24634999999999996         -2111.7852985648665
  0.24719999999999998         -2339.4007765188449
  0.24804999999999999         -2585.8403477791771
  0.24890000000000001         -2851.9310161371036
  0.24974999999999997         -3138.4363318814071
  0.25059999999999999         -3446.0506806658182
  0.25145000000000001         -3775.3716317124799
  0.25229999999999997         -4126.8835214947794
  0.25314999999999999         -4500.9473236510212
  0.25400000000000000         -4897.7632514581519
  0.25484999999999997         -5317.3610225655884
  0.25569999999999998         -5759.5609065479257
  0.25655000000000000         -6223.9644666245549
  0.25739999999999996         -6709.8841877916311
  0.25824999999999998         -7216.3711931155758
  0.25910000000000000         -7742.1263008798533
  0.25994999999999996         -8285.4924826961833
  0.26079999999999998         -8844.4346313494934
  0.26164999999999999         -9416.4765353695802
  0.26249999999999996         -9998.6373864202906
  0.26334999999999997         -10587.519251833552
  0.26419999999999999         -11179.119720188130
  0.26505000000000001         -11768.938791404915
  0.26589999999999997         -12351.875746786936
  0.26674999999999999         -12922.268014601235
  0.26760000000000000         -13473.842638140641
  0.26844999999999997         -13999.711034808795
  0.26929999999999998         -14492.388126279415
  0.27015000000000000         -14943.875562409943
  0.27099999999999996         -15345.578168944528
  0.27184999999999998         -15688.415979125550
  0.27270000000000000         -15962.853370119101
  0.27354999999999996         -16158.862691449309
  0.27439999999999998         -16266.174595951148
  0.27524999999999999         -16274.274084422170
  0.27609999999999996         -16172.373909044816
  0.27694999999999997         -15949.689726734028
  0.27779999999999999         -15595.555825066904
  0.27865000000000001         -15099.386495603903
  0.27949999999999997         -14451.156458169149
  0.28034999999999999         -13641.148609164509
  0.28120000000000001         -12660.417358364077
  0.28204999999999997         -11500.851969783593
  0.28289999999999998         -10155.439112922659
  0.28375000000000000         -8618.3261201279893
  0.28459999999999996         -6885.2594696586457
  0.28544999999999998         -4953.4343012395511
  0.28630000000000000         -2821.8277723347883
  0.28714999999999996         -491.53262030975111
  0.28799999999999998          2034.4297125957760
  0.28885000000000000          4750.6310913520274
  0.28969999999999996          7649.2340617810059
  0.29054999999999997          10720.321341432031
  0.29139999999999999          13950.892029772749
  0.29224999999999995          17325.779357108699
  0.29309999999999997          20827.141676795225
  0.29394999999999999          24434.484705236748
  0.29480000000000001          28124.604311744391
  0.29564999999999997          31872.653900748555
  0.29649999999999999          35650.830943923429
  0.29735000000000000          39429.513442170442
  0.29819999999999997          43177.206879422163
  0.29904999999999998          46860.717479021449
  0.29990000000000000          50445.721627440551
  0.30074999999999996          53896.609010555316
  0.30159999999999998          57177.189012628267
  0.30245000000000000          60251.032349615736
  0.30329999999999996          63081.809958780148
  0.30414999999999998          65633.661048373673
  0.30499999999999999          67871.743117704958
  0.30584999999999996          69762.511932882975
  0.30669999999999997          71274.283767016081
  0.30754999999999999          72377.835305762012
  0.30840000000000001          73046.358894151941
  0.30924999999999997          73256.447551097401
  0.31009999999999999          72988.147546394976
  0.31095000000000000          72225.235787798374
  0.31179999999999997          70955.731790348291
  0.31264999999999998          69172.158662860515
  0.31350000000000000          66871.886387219856
  0.31434999999999996          64057.004438470074
  0.31519999999999998          60734.491517267561
  0.31605000000000000          56916.319842275640
  0.31689999999999996          52619.510582242474
  0.31774999999999998          47866.109234542033
  0.31859999999999999          42682.819748444948
  0.31944999999999996          37101.279670903656
  0.32029999999999997          31157.313748236371
  0.32114999999999999          24890.898786997634
  0.32199999999999995          18345.800636218224
  0.32284999999999997          11568.992213555583
  0.32369999999999999          4610.4413258782870
  0.32455000000000001         -2477.6896772743021
  0.32539999999999997         -9641.1098582137784
  0.32624999999999998         -16824.573339723389
  0.32710000000000000         -23971.786546277577
  0.32794999999999996         -31026.699479277908
  0.32879999999999998         -37933.606689428336
  0.32965000000000000         -44637.475946363280
  0.33049999999999996         -51085.619638401549
  0.33134999999999998         -57226.983710726876
  0.33220000000000000         -63013.466193148357
  0.33304999999999996         -68399.946403831229
  0.33389999999999997         -73345.820580952175
  0.33474999999999999         -77814.035797316974
  0.33559999999999995         -81771.934610666765
  0.33644999999999997         -85191.763301857631
  0.33729999999999999         -88051.178744966557
  0.33815000000000001         -90332.642108868007
  0.33899999999999997         -92024.331651172135
  0.33984999999999999         -93119.393975069223
  0.34070000000000000         -93617.190513491514
  0.34154999999999996         -93521.798947778181
  0.34239999999999998         -92842.795796678794
  0.34325000000000000         -91594.490910777720
  0.34409999999999996         -89796.532835365520
  0.34494999999999998         -87472.531911703190
  0.34580000000000000         -84650.609458591949
  0.34664999999999996         -81362.744625796462
  0.34749999999999998         -77644.447400995690
  0.34834999999999999         -73533.630583599719
  0.34919999999999995         -69071.491002078605
  0.35004999999999997         -64300.999577152994
  0.35089999999999999         -59266.315826009399
  0.35174999999999995         -54012.724656958999
  0.35259999999999997         -48586.406401423548
  0.35344999999999999         -43033.233030937896
  0.35430000000000000         -37399.075395498112
  0.35514999999999997         -31728.900216090016
  0.35599999999999998         -26065.988576118787
  0.35685000000000000         -20452.443285977060
  0.35769999999999996         -14928.292933342176
  0.35854999999999998         -9531.2510032672271
  0.35940000000000000         -4296.2958204752840
  0.36024999999999996          744.39867822521762
  0.36109999999999998          5561.7722173205530
  0.36194999999999999          10129.885482782442
  0.36279999999999996          14426.198403557066
  0.36364999999999997          18431.669190305009
  0.36449999999999999          22130.445038152571
  0.36534999999999995          25510.270779318074
  0.36619999999999997          28561.998775977368
  0.36704999999999999          31280.136471631700
  0.36790000000000000          33662.044838158814