 -0.12000000000000000          0.0000000000000000
 -0.11914999999999999          0.0000000000000000
 -0.11830000000000000          3.4421762702048490E-014
 -0.11745000000000000          2.6911415266770910E-013
 -0.11660000000000000          1.0588514586690361E-012
 -0.11574999999999999          2.7854476765639771E-012
 -0.11490000000000000          5.4087341557393281E-012
 -0.11405000000000000          7.8950869172215052E-012
 -0.11320000000000000          7.9058911313827362E-012
 -0.11234999999999999          2.1709696619214867E-012
 -0.11150000000000000         -1.2252109631261491E-011
 -0.11065000000000000         -3.6077475226512906E-011
 -0.10979999999999999         -6.5973597911601330E-011
 -0.10894999999999999         -9.3811991925720341E-011
 -0.10810000000000000         -1.0779894936286344E-010
 -0.10725000000000000         -9.5683062500233982E-011
 -0.10639999999999999         -4.9335646554760628E-011
 -0.10554999999999999          3.0807898781356225E-011
 -0.10470000000000000          1.3328823399360441E-010
 -0.10385000000000000          2.3659185221790844E-010
 -0.10299999999999999          3.1390986381604799E-010
 -0.10214999999999999          3.4060902655886521E-010
 -0.10130000000000000          3.0209959659725854E-010
 -0.10045000000000000          1.9928934435780132E-010
  -9.9599999999999994E-002     4.9368290695400513E-011
  -9.8750000000000004E-002    -1.1881651889331588E-010
  -9.7900000000000001E-002    -2.7355851256661697E-010
  -9.7049999999999997E-002    -3.9031881354889256E-010
  -9.6199999999999994E-002    -4.5931814945806058E-010
  -9.5349999999999990E-002    -4.8766886229938893E-010
  -9.4500000000000001E-002    -4.9489356267869979E-010
  -9.3649999999999997E-002    -5.0315924499039022E-010
  -9.2799999999999994E-002    -5.2572234490244265E-010
  -9.1950000000000004E-002    -5.5807196594840774E-010
  -9.1100000000000000E-002    -5.7559880852435252E-010
  -9.0249999999999997E-002    -5.3944639981015142E-010
  -8.9399999999999993E-002    -4.0924676898491869E-010
  -8.8549999999999990E-002    -1.5876759783077403E-010
  -8.7700000000000000E-002     2.1087681912112391E-010
  -8.6849999999999997E-002     6.6529387042361580E-010
  -8.5999999999999993E-002     1.1407384697745163E-009
  -8.5150000000000003E-002     1.5571940346165852E-009
  -8.4300000000000000E-002     1.8367909743330601E-009
  -8.3449999999999996E-002     1.9219072178423462E-009
  -8.2600000000000007E-002     1.7874182390999748E-009
  -8.1749999999999989E-002     1.4436054022735896E-009
  -8.0900000000000000E-002     9.2944662133652935E-010
  -8.0049999999999996E-002     2.9924261136298172E-010
  -7.9199999999999993E-002    -3.9239091340571491E-010
  -7.8350000000000003E-002    -1.1019478327259067E-009
  -7.7499999999999999E-002    -1.8013406146361469E-009
  -7.6649999999999996E-002    -2.4744844138675234E-009
  -7.5800000000000006E-002    -3.1085565674183636E-009
  -7.4949999999999989E-002    -3.6843134215504855E-009
  -7.4099999999999999E-002    -4.1701153303177740E-009
  -7.3249999999999996E-002    -4.5227585584527769E-009
  -7.2399999999999992E-002    -4.6954741629292472E-009
  -7.1550000000000002E-002    -4.6506537777649197E-009
  -7.0699999999999999E-002    -4.3728938412196066E-009
  -6.9849999999999995E-002    -3.8776640210357502E-009
  -6.9000000000000006E-002    -3.2122862980254152E-009
  -6.8149999999999988E-002    -2.4485128232534957E-009
  -6.7299999999999999E-002    -1.6687688651598858E-009
  -6.6449999999999995E-002    -9.5021040705151795E-010
  -6.5599999999999992E-002    -3.5137389111167181E-010
  -6.4750000000000002E-002     9.4669796698036063E-011
  -6.3899999999999998E-002     3.7887797416254220E-010
  -6.3049999999999995E-002     5.0731589033430314E-010
  -6.2199999999999998E-002     4.8773511945366208E-010
  -6.1350000000000002E-002     3.1573803148701716E-010
  -6.0499999999999998E-002    -3.5267923310375001E-011
  -5.9650000000000002E-002    -6.1746409536942300E-010
  -5.8799999999999998E-002    -1.5044985519126882E-009
  -5.7950000000000002E-002    -2.7807069927211376E-009
  -5.7099999999999998E-002    -4.5267515994041909E-009
  -5.6249999999999994E-002    -6.8054616157290150E-009
  -5.5400000000000005E-002    -9.6520930236192582E-009
  -5.4550000000000001E-002    -1.3072099415308335E-008
  -5.3699999999999998E-002    -1.7048159861812087E-008
  -5.2849999999999994E-002    -2.1556135717314865E-008
  -5.2000000000000005E-002    -2.6586913100247710E-008
  -5.1150000000000001E-002    -3.2169910743195635E-008
  -5.0299999999999997E-002    -3.8391995874915941E-008
  -4.9449999999999994E-002    -4.5406890084187209E-008
  -4.8600000000000004E-002    -5.3431616057026495E-008
  -4.7750000000000001E-002    -6.2729926035547924E-008
  -4.6899999999999997E-002    -7.3586454082759355E-008
  -4.6049999999999994E-002    -8.6279648400149253E-008
  -4.5200000000000004E-002    -1.0106148137813163E-007
  -4.4350000000000001E-002    -1.1815280135719979E-007
  -4.3499999999999997E-002    -1.3775914510475003E-007
  -4.2649999999999993E-002    -1.6010716648177234E-007
  -4.1800000000000004E-002    -1.8549184550209678E-007
  -4.0950000000000000E-002    -2.1432614979579589E-007
  -4.0099999999999997E-002    -2.4717883314516781E-007
  -3.9249999999999993E-002    -2.8479070822807857E-007
  -3.8400000000000004E-002    -3.2806485689952609E-007
  -3.7550000000000000E-002    -3.7803624806391378E-007
  -3.6699999999999997E-002    -4.3583106302791413E-007
  -3.5850000000000007E-002    -5.0263353926073990E-007
  -3.5000000000000003E-002    -5.7967356707733778E-007
  -3.4150000000000000E-002    -6.6824798492407685E-007
  -3.3299999999999996E-002    -7.6977345631481470E-007
  -3.2450000000000007E-002    -8.8586313721078560E-007
  -3.1600000000000003E-002    -1.0184114902342277E-006
  -3.0750000000000000E-002    -1.1696684420311974E-006
  -2.9899999999999996E-002    -1.3422875415856787E-006
  -2.9050000000000006E-002    -1.5393483719157932E-006
  -2.8200000000000003E-002    -1.7643456334762246E-006
  -2.7349999999999999E-002    -2.0211666109157235E-006
  -2.6499999999999996E-002    -2.3140777123067530E-006
  -2.5650000000000006E-002    -2.6477312559745233E-006
  -2.4800000000000003E-002    -3.0272011061290920E-006
  -2.3949999999999999E-002    -3.4580559152099386E-006
  -2.3099999999999996E-002    -3.9464510294051566E-006
  -2.2250000000000006E-002    -4.4992401493545865E-006
  -2.1400000000000002E-002    -5.1240627513149775E-006
  -2.0549999999999999E-002    -5.8294309546933844E-006
  -1.9699999999999995E-002    -6.6247789522112707E-006
  -1.8850000000000006E-002    -7.5204878374317616E-006
  -1.8000000000000002E-002    -8.5279058644337539E-006
  -1.7149999999999999E-002    -9.6593525891779321E-006
  -1.6299999999999995E-002    -1.0928150318649248E-005
  -1.5450000000000005E-002    -1.2348658179615096E-005
  -1.4600000000000002E-002    -1.3936309113971927E-005
  -1.3749999999999998E-002    -1.5707675466323937E-005
  -1.2899999999999995E-002    -1.7680536746399978E-005
  -1.2050000000000005E-002    -1.9873886912778447E-005
  -1.1200000000000002E-002    -2.2308009065877213E-005
  -1.0349999999999998E-002    -2.5004439089835993E-005
  -9.5000000000000084E-003    -2.7985904321797012E-005
  -8.6500000000000049E-003    -3.1276333771318035E-005
  -7.8000000000000014E-003    -3.4900708518527032E-005
  -6.9499999999999978E-003    -3.8884942338285002E-005
  -6.1000000000000082E-003    -4.3255814224031546E-005
  -5.2500000000000047E-003    -4.8040702587180696E-005
  -4.4000000000000011E-003    -5.3267518559020854E-005
  -3.5499999999999976E-003    -5.8964391080627578E-005
  -2.7000000000000079E-003    -6.5159490413180311E-005
  -1.8500000000000044E-003    -7.1880749822789142E-005
  -1.0000000000000009E-003    -7.9155476446143264E-005
  -1.4999999999999736E-004    -8.7010185601026825E-005
   6.9999999999999230E-004    -9.5470003013847288E-005
   1.5499999999999958E-003    -1.0455838760100369E-004
   2.3999999999999994E-003    -1.1429658748158170E-004
   3.2500000000000029E-003    -1.2470309930389002E-004
   4.0999999999999925E-003    -1.3579305874872788E-004
   4.9499999999999961E-003    -1.4757766050730212E-004
   5.7999999999999996E-003    -1.6006349612727932E-004
   6.6499999999999893E-003    -1.7325185368244629E-004
   7.5000000000000067E-003    -1.8713810090779389E-004
   8.3499999999999963E-003    -2.0171108350870465E-004
   9.1999999999999860E-003    -2.1695234925914284E-004
   1.0050000000000003E-002    -2.3283565655647407E-004
   1.0899999999999993E-002    -2.4932630971587422E-004
   1.1750000000000010E-002    -2.6638051270480166E-004
   1.2600000000000000E-002    -2.8394477374017567E-004
   1.3449999999999990E-002    -3.0195529885259021E-004
   1.4300000000000007E-002    -3.2033723059910423E-004
   1.5149999999999997E-002    -3.3900466493588766E-004
   1.5999999999999986E-002    -3.5785980705194690E-004
   1.6850000000000004E-002    -3.7679315864489366E-004
   1.7699999999999994E-002    -3.9568306221010347E-004
   1.8549999999999983E-002    -4.1439624359097685E-004
   1.9400000000000001E-002    -4.3278747032874732E-004
   2.0249999999999990E-002    -4.5070030661302089E-004
   2.1100000000000008E-002    -4.6796728815275330E-004
   2.1949999999999997E-002    -4.8441043600981631E-004
   2.2799999999999987E-002    -4.9984250033439817E-004
   2.3650000000000004E-002    -5.1406730573552327E-004
   2.4499999999999994E-002    -5.2688140591804265E-004
   2.5349999999999984E-002    -5.3807511519950949E-004
   2.6200000000000001E-002    -5.4743393413368886E-004
   2.7049999999999991E-002    -5.5474105861065852E-004
   2.7900000000000008E-002    -5.5977841105380095E-004
   2.8749999999999998E-002    -5.6232925396623409E-004
   2.9599999999999987E-002    -5.6218013353599705E-004
   3.0450000000000005E-002    -5.5912351866506719E-004
   3.1299999999999994E-002    -5.5295981619165105E-004
   3.2149999999999984E-002    -5.4350043823582104E-004
   3.3000000000000002E-002    -5.3056982961257281E-004
   3.3849999999999991E-002    -5.1400844514812164E-004
   3.4700000000000009E-002    -4.9367542179672586E-004
   3.5549999999999998E-002    -4.6945131284459763E-004
   3.6399999999999988E-002    -4.4123985652019928E-004
   3.7250000000000005E-002    -4.0897151019023229E-004
   3.8099999999999995E-002    -3.7260502400752419E-004
   3.8949999999999985E-002    -3.3212998652510750E-004
   3.9800000000000002E-002    -2.8756833701739509E-004
   4.0649999999999992E-002    -2.3897645028762331E-004
   4.1500000000000009E-002    -1.8644642788975206E-004
   4.2349999999999999E-002    -1.3010689649184661E-004
   4.3199999999999988E-002    -7.0124202659078302E-005
   4.4050000000000006E-002    -6.7023233180217419E-006
   4.4899999999999995E-002     5.9916717475721413E-005
   4.5749999999999985E-002     1.2945374452768725E-004
   4.6600000000000003E-002     2.0159321260055534E-004
   4.7449999999999992E-002     2.7598411936932319E-004
   4.8299999999999982E-002     3.5224231895979380E-004
   4.9149999999999999E-002     4.2995234010222491E-004
   4.9999999999999989E-002     5.0867008805299319E-004
   5.0850000000000006E-002     5.8792577184384382E-004
   5.1699999999999996E-002     6.6722727036477619E-004
   5.2549999999999986E-002     7.4606401860529239E-004
   5.3400000000000003E-002     8.2391102834484435E-004
   5.4249999999999993E-002     9.0023360297136919E-004
   5.5099999999999982E-002     9.7449136781737515E-004
   5.5950000000000000E-002     1.0461439177202926E-003
   5.6799999999999989E-002     1.1146552745392930E-003
   5.7650000000000007E-002     1.1794989679012212E-003
   5.8499999999999996E-002     1.2401632317406879E-003
   5.9349999999999986E-002     1.2961561622512835E-003
   6.0200000000000004E-002     1.3470106715201711E-003
   6.1049999999999993E-002     1.3922891888460481E-003
   6.1899999999999983E-002     1.4315881791429482E-003
   6.2750000000000000E-002     1.4645432284593860E-003
   6.3599999999999990E-002     1.4908322905540429E-003
   6.4450000000000007E-002     1.5101794306088393E-003
   6.5299999999999997E-002     1.5223582634192418E-003
   6.6149999999999987E-002     1.5271948652819190E-003
   6.7000000000000004E-002     1.5245699463928720E-003
   6.7849999999999994E-002     1.5144201759225108E-003
   6.8699999999999983E-002     1.4967392727268125E-003
   6.9550000000000001E-002     1.4715790750433357E-003
   7.0399999999999990E-002     1.4390491511983099E-003
   7.1249999999999980E-002     1.3993163240481996E-003
   7.2099999999999997E-002     1.3526031338864325E-003
   7.2949999999999987E-002     1.2991861509127117E-003
   7.3800000000000004E-002     1.2393937161333829E-003
   7.4649999999999994E-002     1.1736025889655564E-003
   7.5499999999999984E-002     1.1022352684326210E-003
   7.6350000000000001E-002     1.0257553256552243E-003
   7.7199999999999991E-002     9.4466357195236654E-004
   7.8049999999999981E-002     8.5949294894496048E-004
   7.8899999999999998E-002     7.7080372828358657E-004
   7.9749999999999988E-002     6.7917925082689324E-004
   8.0600000000000005E-002     5.8521898314036283E-004
   8.1449999999999995E-002     4.8953383863996130E-004
   8.2299999999999984E-002     3.9274126264617835E-004
   8.3150000000000002E-002     2.9545806004586744E-004
   8.3999999999999991E-002     1.9829679903462827E-004
   8.4849999999999981E-002     1.0185864847734979E-004
   8.5699999999999998E-002     6.7294127144234831E-006
   8.6549999999999988E-002    -8.6526226127632100E-005
   8.7400000000000005E-002    -1.7736845774092734E-004
   8.8249999999999995E-002    -2.6528698814864287E-004
   8.9099999999999985E-002    -3.4980499551956468E-004
   8.9950000000000002E-002    -4.3048249938451339E-004
   9.0799999999999992E-002    -5.0691830399655837E-004
   9.1649999999999981E-002    -5.7875431733881181E-004
   9.2499999999999999E-002    -6.4567589064656091E-004
   9.3349999999999989E-002    -7.0741476471194433E-004
   9.4200000000000006E-002    -7.6374978142369396E-004
   9.5049999999999996E-002    -8.1450619603205062E-004
   9.5899999999999985E-002    -8.5955749567914090E-004
   9.6750000000000003E-002    -8.9882396267502876E-004
   9.7599999999999992E-002    -9.3227128296483432E-004
   9.8449999999999982E-002    -9.5991052423417182E-004
   9.9299999999999999E-002    -9.8179488670405461E-004
  0.10014999999999999         -9.9801842136483239E-004
  0.10099999999999998         -1.0087141427201200E-003
  0.10185000000000000         -1.0140501189403268E-003
  0.10269999999999999         -1.0142275901784856E-003
  0.10355000000000000         -1.0094769584507886E-003
  0.10439999999999999         -1.0000555609890865E-003
  0.10524999999999998         -9.8624280691300193E-004
  0.10610000000000000         -9.6833835837727253E-004
  0.10694999999999999         -9.4665718609340680E-004
  0.10779999999999998         -9.2152666417428316E-004
  0.10865000000000000         -8.9328292856243117E-004
  0.10949999999999999         -8.6226764033250100E-004
  0.11035000000000000         -8.2882464506184523E-004
  0.11119999999999999         -7.9329707350522219E-004
  0.11204999999999998         -7.5602444317837453E-004
  0.11290000000000000         -7.1733930589974726E-004
  0.11374999999999999         -6.7756568688046330E-004
  0.11459999999999998         -6.3701572266921462E-004
  0.11545000000000000         -5.9598845173664786E-004
  0.11629999999999999         -5.5476764575947764E-004
  0.11715000000000000         -5.1362052113965487E-004
  0.11799999999999999         -4.7279646625212474E-004
  0.11884999999999998         -4.3252598241831798E-004
  0.11970000000000000         -3.9301976659729773E-004
  0.12054999999999999         -3.5446881358605224E-004
  0.12139999999999998         -3.1704333902399831E-004
  0.12225000000000000         -2.8089300830805904E-004
  0.12309999999999999         -2.4614710231104944E-004
  0.12395000000000000         -2.1291486865912792E-004
  0.12479999999999999         -1.8128596557782125E-004
  0.12564999999999998         -1.5133138262595852E-004
  0.12650000000000000         -1.2310399878883016E-004
  0.12734999999999999         -9.6639702326434878E-005
  0.12819999999999998         -7.1958437390235079E-005
  0.12905000000000000         -4.9065186988790749E-005
  0.12989999999999999         -2.7951073164504244E-005
  0.13074999999999998         -8.5945377821340519E-006
  0.13159999999999999          9.0373799660760437E-006
  0.13245000000000001          2.4987958794604322E-005
  0.13329999999999997          3.9309398328157926E-005
  0.13414999999999999          5.2061504834412197E-005
  0.13500000000000001          6.3310546289461247E-005
  0.13584999999999997          7.3128252901223165E-005
  0.13669999999999999          8.1590207881568808E-005
  0.13755000000000001          8.8775151167934998E-005
  0.13839999999999997          9.4764060108343815E-005
  0.13924999999999998          9.9639200103644794E-005
  0.14010000000000000          1.0348307699989119E-004
  0.14094999999999996          1.0637812586080816E-004
  0.14179999999999998          1.0840551001541319E-004
  0.14265000000000000          1.0964488450414073E-004
  0.14350000000000002          1.1017358178188008E-004
  0.14434999999999998          1.1006632512270737E-004
  0.14520000000000000          1.0939471614268510E-004
  0.14605000000000001          1.0822698585737154E-004
  0.14689999999999998          1.0662779654999305E-004
  0.14774999999999999          1.0465796031987525E-004
  0.14860000000000001          1.0237422833857706E-004
  0.14944999999999997          9.9829351322037836E-005
  0.15029999999999999          9.7071935734824281E-005
  0.15115000000000001          9.4146366743488906E-005
  0.15199999999999997          9.1093118504643059E-005
  0.15284999999999999          8.7948654909826747E-005
  0.15370000000000000          8.4745836271606084E-005
  0.15454999999999997          8.1513823245831738E-005
  0.15539999999999998          7.8278466475787995E-005
  0.15625000000000000          7.5062417282698122E-005
  0.15709999999999996          7.1885277648739442E-005
  0.15794999999999998          6.8763643798643389E-005
  0.15880000000000000          6.5711406465304551E-005
  0.15965000000000001          6.2739867386432655E-005
  0.16049999999999998          5.9857971922529627E-005
  0.16134999999999999          5.7072546882985829E-005
  0.16220000000000001          5.4388654410197271E-005
  0.16304999999999997          5.1809866579463873E-005
  0.16389999999999999          4.9338337268823385E-005
  0.16475000000000001          4.6975240354089675E-005
  0.16559999999999997          4.4720768497179473E-005
  0.16644999999999999          4.2574119305577640E-005
  0.16730000000000000          4.0533679569757197E-005
  0.16814999999999997          3.8597052152415710E-005
  0.16899999999999998          3.6761163771629785E-005
  0.16985000000000000          3.5022427690322120E-005
  0.17069999999999996          3.3376823819073777E-005
  0.17154999999999998          3.1820223275937781E-005
  0.17240000000000000          3.0348365737612642E-005
  0.17325000000000002          2.8957111054223764E-005
  0.17409999999999998          2.7642406834269084E-005
  0.17494999999999999          2.6400335535884262E-005
  0.17580000000000001          2.5227044952425253E-005
  0.17664999999999997          2.4118687617819497E-005
  0.17749999999999999          2.3071400438889709E-005
  0.17835000000000001          2.2081404888403388E-005
  0.17919999999999997          2.1144977487812033E-005
  0.18004999999999999          2.0258517339806405E-005
  0.18090000000000001          1.9418657817768399E-005
  0.18174999999999997          1.8622302076849048E-005
  0.18259999999999998          1.7866624959831507E-005
  0.18345000000000000          1.7149041643679205E-005
  0.18429999999999996          1.6467213785388606E-005
  0.18514999999999998          1.5818942509177024E-005
  0.18600000000000000          1.5202131037232461E-005
  0.18684999999999996          1.4614826287714494E-005
  0.18769999999999998          1.4055123063247559E-005
  0.18855000000000000          1.3521270549501781E-005
  0.18940000000000001          1.3011641486054637E-005
  0.19024999999999997          1.2524744468859517E-005
  0.19109999999999999          1.2059265886437188E-005
  0.19195000000000001          1.1614016624969538E-005
  0.19279999999999997          1.1187934099038541E-005
  0.19364999999999999          1.0780052094602324E-005
  0.19450000000000001          1.0389475771422756E-005
  0.19534999999999997          1.0015437569240388E-005
  0.19619999999999999          9.6572087251745217E-006
  0.19705000000000000          9.3141879997372641E-006
  0.19789999999999996          8.9858259166902073E-006
  0.19874999999999998          8.6716485430453227E-006
  0.19960000000000000          8.3712409364454723E-006
  0.20044999999999996          8.0841869629733683E-006
  0.20129999999999998          7.8101227359457944E-006
  0.20215000000000000          7.5486208223801513E-006
  0.20300000000000001          7.2993091087871411E-006
  0.20384999999999998          7.0617860462443049E-006
  0.20469999999999999          6.8356895672329607E-006
  0.20555000000000001          6.6207033223258383E-006
  0.20639999999999997          6.4165281604552014E-006
  0.20724999999999999          6.2228773301673880E-006
  0.20810000000000001          6.0394665147205623E-006
  0.20894999999999997          5.8659642475011028E-006
  0.20979999999999999          5.7019996888226421E-006
  0.21065000000000000          5.5471387147357339E-006
  0.21149999999999997          5.4009491565077059E-006
  0.21234999999999998          5.2629721931328915E-006
  0.21320000000000000          5.1327712959468049E-006
  0.21404999999999996          5.0099389962642528E-006
  0.21489999999999998          4.8940814594568540E-006
  0.21575000000000000          4.7847888528533807E-006
  0.21659999999999996          4.6816274649052054E-006
  0.21744999999999998          4.5841110142039497E-006
  0.21829999999999999          4.4916981585084468E-006
  0.21915000000000001          4.4037983496432206E-006
  0.21999999999999997          4.3198169435338119E-006
  0.22084999999999999          4.2391751406664684E-006
  0.22170000000000001          4.1613478865410886E-006
  0.22254999999999997          4.0858694065580671E-006
  0.22339999999999999          4.0123303562162815E-006
  0.22425000000000000          3.9403387155769304E-006
  0.22509999999999997          3.8695087363401264E-006
  0.22594999999999998          3.7994288749411848E-006
  0.22680000000000000          3.7296503318056706E-006
  0.22764999999999996          3.6597276211656000E-006
  0.22849999999999998          3.5892405671944281E-006
  0.22935000000000000          3.5178478318870692E-006
  0.23019999999999996          3.4452973339992476E-006
  0.23104999999999998          3.3714676925100319E-006
  0.23190000000000000          3.2963381105290746E-006
  0.23275000000000001          3.2199476133927794E-006
  0.23359999999999997          3.1423697199507010E-006
  0.23444999999999999          3.0636485328698301E-006
  0.23530000000000001          2.9838005526651453E-006
  0.23614999999999997          2.9028198035625869E-006
  0.23699999999999999          2.8206872987480985E-006
  0.23785000000000001          2.7374304363430197E-006
  0.23869999999999997          2.6531428212729270E-006
  0.23954999999999999          2.5680308467430441E-006
  0.24040000000000000          2.4823809478418734E-006
  0.24124999999999996          2.3965472402286190E-006
  0.24209999999999998          2.3109158951182118E-006
  0.24295000000000000          2.2258538706456279E-006
  0.24379999999999996          2.1416807008301940E-006
  0.24464999999999998          2.0586701945024929E-006
  0.24550000000000000          1.9770477086088783E-006
  0.24634999999999996          1.8970208067895547E-006
  0.24719999999999998          1.8188027572508257E-006
  0.24804999999999999          1.7426521710419047E-006
  0.24890000000000001          1.6688710529476050E-006
  0.24974999999999997          1.5978016550373903E-006
  0.25059999999999999          1.5298124720245052E-006
  0.25145000000000001          1.4652660884770394E-006
  0.25229999999999997          1.4044932700749559E-006
  0.25314999999999999          1.3477799676201498E-006
  0.25400000000000000          1.2953471602174411E-006
  0.25484999999999997          1.2473599872516720E-006
  0.25569999999999998          1.2039190855700982E-006
  0.25655000000000000          1.1650907468706927E-006
  0.25739999999999996          1.1309030819942607E-006
  0.25824999999999998          1.1013593058845394E-006
  0.25910000000000000          1.0764587789143386E-006
  0.25994999999999996          1.0561934894893069E-006
  0.26079999999999998          1.0405548093553489E-006
  0.26164999999999999          1.0295322728570252E-006
  0.26249999999999996          1.0231019644226202E-006
  0.26334999999999997          1.0212076244423229E-006
  0.26419999999999999          1.0237319231208336E-006
  0.26505000000000001          1.0304838208794039E-006
  0.26589999999999997          1.0411745365469233E-006
  0.26674999999999999          1.0554155893234946E-006
  0.26760000000000000          1.0727363779453911E-006
  0.26844999999999997          1.0926110905180794E-006
  0.26929999999999998          1.1145001817266524E-006
  0.27015000000000000          1.1378622810389661E-006
  0.27099999999999996          1.1622035930431844E-006
  0.27184999999999998          1.1870608677497422E-006
  0.27270000000000000          1.2119930955837637E-006
  0.27354999999999996          1.2365481017075658E-006
  0.27439999999999998          1.2602566687968348E-006
  0.27524999999999999          1.2825905478009752E-006
  0.27609999999999996          1.3029788684542168E-006
  0.27694999999999997          1.3208178828284882E-006
  0.27779999999999999          1.3355213714248904E-006
  0.27865000000000001          1.3465579270849006E-006
  0.27949999999999997          1.3534832226554580E-006
  0.28034999999999999          1.3559674074836741E-006
  0.28120000000000001          1.3537889902046259E-006
  0.28204999999999997          1.3468144106165503E-006
  0.28289999999999998          1.3349645069822839E-006
  0.28375000000000000          1.3181940128946493E-006
  0.28459999999999996          1.2964636689170943E-006
  0.28544999999999998          1.2697626483431654E-006
  0.28630000000000000          1.2381131585352250E-006
  0.28714999999999996          1.2016171858152945E-006
  0.28799999999999998          1.1604769544676736E-006
  0.28885000000000000          1.1150158999983631E-006
  0.28969999999999996          1.0656741503076399E-006
  0.29054999999999997          1.0129840879793400E-006
  0.29139999999999999          9.5753001511182770E-007
  0.29224999999999995          8.9991551932367651E-007
  0.29309999999999997          8.4072058970934043E-007
  0.29394999999999999          7.8049050019887342E-007
  0.29480000000000001          7.1973561871095202E-007
  0.29564999999999997          6.5894794614711101E-007
  0.29649999999999999          5.9862312628035457E-007
  0.29735000000000000          5.3927857928052945E-007
  0.29819999999999997          4.8145545907474660E-007
  0.29904999999999998          4.2571451537216122E-007
  0.29990000000000000          3.7261388269127158E-007
  0.30074999999999996          3.2267571703496722E-007
  0.30159999999999998          2.7636794583273544E-007
  0.30245000000000000          2.3407509846433665E-007
  0.30329999999999996          1.9610434014076688E-007
  0.30414999999999998          1.6269044868427029E-007
  0.30499999999999999          1.3400781951522444E-007
  0.30584999999999996          1.1018409558738180E-007
  0.30669999999999997          9.1323182760599669E-008
  0.30754999999999999          7.7494342706254829E-008
  0.30840000000000001          6.8736032361884422E-008
  0.30924999999999997          6.5040488864885797E-008
  0.31009999999999999          6.6345632241474448E-008
  0.31095000000000000          7.2520070172379416E-008
  0.31179999999999997          8.3368815396530733E-008
  0.31264999999999998          9.8634430146849539E-008
  0.31350000000000000          1.1801357795382831E-007
  0.31434999999999996          1.4117061807744010E-007
  0.31519999999999998          1.6775259963304395E-007
  0.31605000000000000          1.9739530028490668E-007
  0.31689999999999996          2.2972581809957026E-007
  0.31774999999999998          2.6436131096797624E-007
  0.31859999999999999          3.0090197584628022E-007
  0.31944999999999996          3.3892702265826448E-007
  0.32029999999999997          3.7798512897050856E-007
  0.32114999999999999          4.1760896634897000E-007
  0.32199999999999995          4.5730886961955069E-007
  0.32284999999999997          4.9658482990929014E-007
  0.32369999999999999          5.3494207334470429E-007
  0.32455000000000001          5.7189916091945766E-007
  0.32539999999999997          6.0699886891815078E-007
  0.32624999999999998          6.3980938426690744E-007
  0.32710000000000000          6.6993606446504014E-007
  0.32794999999999996          6.9700947900394287E-007
  0.32879999999999998          7.2069222357702880E-007
  0.32965000000000000          7.4067391504139385E-007
  0.33049999999999996          7.5666127855622317E-007
  0.33134999999999998          7.6838675407443751E-007
  0.33220000000000000          7.7561302968977977E-007
  0.33304999999999996          7.7814222340561610E-007
  0.33389999999999997          7.7582393923036391E-007
  0.33474999999999999          7.6857898089615061E-007
  0.33559999999999995          7.5639930011222549E-007
  0.33644999999999997          7.3936543804731691E-007
  0.33729999999999999          7.1764194780962388E-007
  0.33815000000000001          6.9146529765713417E-007
  0.33899999999999997          6.6113619842207888E-007
  0.33984999999999999          6.2699754304949835E-007
  0.34070000000000000          5.8941217212354105E-007
  0.34154999999999996          5.4875188432069080E-007
  0.34239999999999998          5.0539344260441486E-007