 -0.12000000000000000          0.0000000000000000
 -0.11914999999999999          0.0000000000000000
 -0.11830000000000000          0.0000000000000000
 -0.11745000000000000          0.0000000000000000
 -0.11660000000000000          0.0000000000000000
 -0.11574999999999999          0.0000000000000000
 -0.11490000000000000         -5.4237555165573838E-015
 -0.11405000000000000         -5.1383634092522182E-014
 -0.11320000000000000         -2.3198249704070917E-013
 -0.11234999999999999         -5.9827547375754883E-013
 -0.11150000000000000         -6.0623515579560974E-013
 -0.11065000000000000          2.1216577031344325E-012
 -0.10979999999999999          1.2976076680503277E-011
 -0.10894999999999999          3.8454170125122232E-011
 -0.10810000000000000          7.5630342783340291E-011
 -0.10725000000000000          8.8505499328970938E-011
 -0.10639999999999999         -2.2822555389539390E-011
 -0.10554999999999999         -4.3086557149900559E-010
 -0.10470000000000000         -1.3088713958655911E-009
 -0.10385000000000000         -2.6103710220627651E-009
 -0.10299999999999999         -3.6840205999438539E-009
 -0.10214999999999999         -2.8573610017026802E-009
 -0.10130000000000000          2.6403494454003469E-009
 -0.10045000000000000          1.5829671319506814E-008
  -9.9599999999999994E-002     3.7642000355565287E-008
  -9.8750000000000004E-002     6.3052746308060490E-008
  -9.7900000000000001E-002     7.6837733248674077E-008
  -9.7049999999999997E-002     5.1758241883291867E-008
  -9.6199999999999994E-002    -4.6634927230135782E-008
  -9.5349999999999990E-002    -2.4452956923248837E-007
  -9.4500000000000001E-002    -5.3271074384028390E-007
  -9.3649999999999997E-002    -8.3338439633067486E-007
  -9.2799999999999994E-002    -9.7581076114106805E-007
  -9.1950000000000004E-002    -7.0390016077229001E-007
  -9.1100000000000000E-002     2.5935904886551897E-007
  -9.0249999999999997E-002     2.0769412629324566E-006
  -8.9399999999999993E-002     4.6063265402983220E-006
  -8.8549999999999990E-002     7.2071194356717906E-006
  -8.7700000000000000E-002     8.6465584944461889E-006
  -8.6849999999999997E-002     7.2255075904852316E-006
  -8.5999999999999993E-002     1.2266824089818702E-006
  -8.5150000000000003E-002    -1.0297661525034522E-005
  -8.4300000000000000E-002    -2.6529269703755358E-005
  -8.3449999999999996E-002    -4.3990406992759600E-005
  -8.2600000000000007E-002    -5.6216052007683267E-005
  -8.1749999999999989E-002    -5.4489977342849161E-005
  -8.0900000000000000E-002    -2.9982779416771008E-005
  -8.0049999999999996E-002     2.2762834853682208E-005
  -7.9199999999999993E-002     1.0163859523793336E-004
  -7.8350000000000003E-002     1.9333780983770796E-004
  -7.7499999999999999E-002     2.7199738327298931E-004
  -7.6649999999999996E-002     3.0182121176957976E-004
  -7.5800000000000006E-002     2.4472457792537941E-004
  -7.4949999999999989E-002     7.2666882167969044E-005
  -7.4099999999999999E-002    -2.1752817621977286E-004
  -7.3249999999999996E-002    -5.9094906698498224E-004
  -7.2399999999999992E-002    -9.6827260421578944E-004
  -7.1550000000000002E-002    -1.2314965650396361E-003
  -7.0699999999999999E-002    -1.2448823726472159E-003
  -6.9849999999999995E-002    -8.9041831818549425E-004
  -6.9000000000000006E-002    -1.1205102566726243E-004
  -6.8149999999999988E-002     1.0420579925743746E-003
  -6.7299999999999999E-002     2.3932351136493708E-003
  -6.6449999999999995E-002     3.6357950702375131E-003
  -6.5599999999999992E-002     4.3796135585001394E-003
  -6.4750000000000002E-002     4.2321023063501108E-003
  -6.3899999999999998E-002     2.9081927290955864E-003
  -6.3049999999999995E-002     3.4513254529027377E-004
  -6.2199999999999998E-002    -3.2092979985103285E-003
  -6.1350000000000002E-002    -7.1677330430437577E-003
  -6.0499999999999998E-002    -1.0657937408052260E-002
  -5.9650000000000002E-002    -1.2668805797370583E-002
  -5.8799999999999998E-002    -1.2271799928904970E-002
  -5.7950000000000002E-002    -8.8775254738970803E-003
  -5.7099999999999998E-002    -2.4684321630978985E-003
  -5.6249999999999994E-002     6.2580685894923068E-003
  -5.5400000000000005E-002     1.5891924585127740E-002
  -5.4550000000000001E-002     2.4487686430231401E-002
  -5.3699999999999998E-002     2.9906762709052001E-002
  -5.2849999999999994E-002     3.0271423028403494E-002
  -5.2000000000000005E-002     2.4440210996610368E-002
  -5.1150000000000001E-002     1.2394891611363193E-002
  -5.0299999999999997E-002    -4.5660404850753483E-003
  -4.9449999999999994E-002    -2.3899938324838468E-002
  -4.8600000000000004E-002    -4.2177553687022550E-002
  -4.7750000000000001E-002    -5.5679371476958596E-002
  -4.6899999999999997E-002    -6.1124095320132792E-002
  -4.6049999999999994E-002    -5.6381541826926250E-002
  -4.5200000000000004E-002    -4.1013359005846114E-002
  -4.4350000000000001E-002    -1.6511776706411158E-002
  -4.3499999999999997E-002     1.3834185431912772E-002
  -4.2649999999999993E-002     4.5436261262088024E-002
  -4.1800000000000004E-002     7.3179613777140926E-002
  -4.0950000000000000E-002     9.2319021757018740E-002
  -4.0099999999999997E-002     9.9318113013131842E-002
  -3.9249999999999993E-002     9.2463084872958998E-002
  -3.8400000000000004E-002     7.2133483768544782E-002
  -3.7550000000000000E-002     4.0689533755798979E-002
  -3.6699999999999997E-002     2.0210835321942877E-003
  -3.5850000000000007E-002    -3.9125795080333071E-002
  -3.5000000000000003E-002    -7.7888260580347007E-002
  -3.4150000000000000E-002   -0.10993580395287693
  -3.3299999999999996E-002   -0.13191245023570619
  -3.2450000000000007E-002   -0.14162244628076828
  -3.1600000000000003E-002   -0.13798602080832301
  -3.0750000000000000E-002   -0.12085406355931243
  -2.9899999999999996E-002    -9.0803940911270420E-002
  -2.9050000000000006E-002    -4.9029552418820510E-002
  -2.8200000000000003E-002     2.6080156682638128E-003
  -2.7349999999999999E-002     6.1374535194571110E-002
  -2.6499999999999996E-002    0.12338572231967120
  -2.5650000000000006E-002    0.18340136572522284
  -2.4800000000000003E-002    0.23485433195019392
  -2.3949999999999999E-002    0.27024662934476956
  -2.3099999999999996E-002    0.28197094842224912
  -2.2250000000000006E-002    0.26350310102317526
  -2.1400000000000002E-002    0.21079833296689660
  -2.0549999999999999E-002    0.12362617016298369
  -1.9699999999999995E-002     6.5406096028018199E-003
  -1.8850000000000006E-002   -0.13079936171444190
  -1.8000000000000002E-002   -0.27414689123121383
  -1.7149999999999999E-002   -0.40606376062381327
  -1.6299999999999995E-002   -0.50806301372415907
  -1.5450000000000005E-002   -0.56320385979150589
  -1.4600000000000002E-002   -0.55872731056281699
  -1.3749999999999998E-002   -0.48828935231285175
  -1.2899999999999995E-002   -0.35339200564109946
  -1.2050000000000005E-002   -0.16375190468313292
  -1.1200000000000002E-002     6.3480186585007120E-002
  -1.0349999999999998E-002    0.30553107029869886
  -9.5000000000000084E-003    0.53656790524482778
  -8.6500000000000049E-003    0.73062726952663071
  -7.8000000000000014E-003    0.86450209142768220
  -6.9499999999999978E-003    0.92023767210631824
  -6.1000000000000082E-003    0.88699368411176061
  -5.2500000000000047E-003    0.76216958368321186
  -4.4000000000000011E-003    0.55179105344179791
  -3.5499999999999976E-003    0.27023837920192240
  -2.7000000000000079E-003    -6.0607155907115406E-002
  -1.8500000000000044E-003   -0.41274033290439377
  -1.0000000000000009E-003   -0.75392855371578205
  -1.4999999999999736E-004    -1.0501427057506159
   6.9999999999999230E-004    -1.2685054670543852
   1.5499999999999958E-003    -1.3806498201407096
   2.3999999999999994E-003    -1.3662230537099875
   3.2500000000000029E-003    -1.2161182135169337
   4.0999999999999925E-003   -0.93489411718680371
   4.9499999999999961E-003   -0.54182732880260576
   5.7999999999999996E-003    -7.0152542379123078E-002
   6.6499999999999893E-003    0.43570470746547368
   7.5000000000000067E-003    0.92474279238213342
   8.3499999999999963E-003     1.3453200233633222
   9.1999999999999860E-003     1.6515638426012493
   1.0050000000000003E-002     1.8092464184365240
   1.0899999999999993E-002     1.8001561328987230
   1.1750000000000010E-002     1.6242334916845929
   1.2600000000000000E-002     1.2991548910672819
   1.3449999999999990E-002    0.85752218668777902
   1.4300000000000007E-002    0.34225773001788284
   1.5149999999999997E-002   -0.19890639897676246
   1.5999999999999986E-002   -0.71886255987351222
   1.6850000000000004E-002    -1.1756499978482866
   1.7699999999999994E-002    -1.5355450918998759
   1.8549999999999983E-002    -1.7745971019193245
   1.9400000000000001E-002    -1.8788656502928864
   2.0249999999999990E-002    -1.8438488051182906
   2.1100000000000008E-002    -1.6736563143174112
   2.1949999999999997E-002    -1.3803348158700370
   2.2799999999999987E-002   -0.98349328719324514
   2.3650000000000004E-002   -0.51005580125211158
   2.4499999999999994E-002     6.2565926948395401E-003
   2.5349999999999984E-002    0.52619806916759515
   2.6200000000000001E-002     1.0074022568016499
   2.7049999999999991E-002     1.4079937592848077
   2.7900000000000008E-002     1.6911195779247896
   2.8749999999999998E-002     1.8297410317836040
   2.9599999999999987E-002     1.8107992949956151
   3.0450000000000005E-002     1.6378424884656824
   3.1299999999999994E-002     1.3314040760537929
   3.2149999999999984E-002    0.92684708776276747
   3.3000000000000002E-002    0.46986369871473321
   3.3849999999999991E-002     1.0331835820277205E-002
   3.4700000000000009E-002   -0.40443684602412594
   3.5549999999999998E-002   -0.73589697515884867
   3.6399999999999988E-002   -0.95887407369449762
   3.7250000000000005E-002    -1.0638714488871055
   3.8099999999999995E-002    -1.0568478612375822
   3.8949999999999985E-002   -0.95670984057952724
   3.9800000000000002E-002   -0.79116951464219698
   4.0649999999999992E-002   -0.59184191282745835
   4.1500000000000009E-002   -0.38947465230103717
   4.2349999999999999E-002   -0.21006542318263807
   4.3199999999999988E-002    -7.2313188843260337E-002
   4.4050000000000006E-002     1.3446306866191981E-002
   4.4899999999999995E-002     4.4984964716500181E-002
   4.5749999999999985E-002     2.6952680834158749E-002
   4.6600000000000003E-002    -3.0893154488747562E-002
   4.7449999999999992E-002   -0.11559584773998277
   4.8299999999999982E-002   -0.21275371121780301
   4.9149999999999999E-002   -0.30795131715029378
   4.9999999999999989E-002   -0.38783413508404896
   5.0850000000000006E-002   -0.44085956926150294
   5.1699999999999996E-002   -0.45780952292819532
   5.2549999999999986E-002   -0.43212690951163485
   5.3400000000000003E-002   -0.36014116058115092
   5.4249999999999993E-002   -0.24120632494240957
   5.5099999999999982E-002    -7.7784110075484497E-002
   5.5950000000000000E-002    0.12451543640287874
   5.6799999999999989E-002    0.35691156061080243
   5.7650000000000007E-002    0.60746679949850479
   5.8499999999999996E-002    0.86117565244572569
   5.9349999999999986E-002     1.1002420058750793
   6.0200000000000004E-002     1.3046747874399747
   6.1049999999999993E-002     1.4533781191860715
   6.1899999999999983E-002     1.5257966667326655
   6.2750000000000000E-002     1.5041019954545498
   6.3599999999999990E-002     1.3757067862424022
   6.4450000000000007E-002     1.1356877383234303
   6.5299999999999997E-002    0.78864319142244277
   6.6149999999999987E-002    0.34939385974339598
   6.7000000000000004E-002   -0.15781043817124601
   6.7849999999999994E-002   -0.70174682545219302
   6.8699999999999983E-002    -1.2480922905506200
   6.9550000000000001E-002    -1.7641481894564277
   7.0399999999999990E-002    -2.2235841318005534
   7.1249999999999980E-002    -2.6103406549021089
   7.2099999999999997E-002    -2.9209760350390774
   7.2949999999999987E-002    -3.1652037509968434
   7.3800000000000004E-002    -3.3647161330033093
   7.4649999999999994E-002    -3.5508659954483370
   7.5499999999999984E-002    -3.7620431006503017
   7.6350000000000001E-002    -4.0414979675903462
   7.7199999999999991E-002    -4.4362209274153317
   7.8049999999999981E-002    -4.9968286437953040
   7.8899999999999998E-002    -5.7781917676303864
   7.9749999999999988E-002    -6.8400228743048510
   8.0600000000000005E-002    -8.2465355614782414
   8.1449999999999995E-002    -10.064865213713734
   8.2299999999999984E-002    -12.362222978635319
   8.3150000000000002E-002    -15.202446113031806
   8.3999999999999991E-002    -18.643318069011919
   8.4849999999999981E-002    -22.735943448148756
   8.5699999999999998E-002    -27.527414918454916
   8.6549999999999988E-002    -33.067566584215008
   8.7400000000000005E-002    -39.418932539733241
   8.8249999999999995E-002    -46.668888525468184
   8.9099999999999985E-002    -54.942368085187347
   8.9950000000000002E-002    -64.411264722325740
   9.0799999999999992E-002    -75.300854387392278
   9.1649999999999981E-002    -87.890692831087492
   9.2499999999999999E-002    -102.50983324766376
   9.3349999999999989E-002    -119.52956407455302
   9.4200000000000006E-002    -139.35283758767306
   9.5049999999999996E-002    -162.40530421561775
   9.5899999999999985E-002    -189.12795517614964
   9.6750000000000003E-002    -219.97436082729644
   9.7599999999999992E-002    -255.41161201244839
   9.8449999999999982E-002    -295.92589273240304
   9.9299999999999999E-002    -342.02817566540716
  0.10014999999999999         -394.26276264410973
  0.10099999999999998         -453.21698530727167
  0.10185000000000000         -519.52538331800940
  0.10269999999999999         -593.88047331823111
  0.10355000000000000         -677.03731697732462
  0.10439999999999999         -769.81800465720437
  0.10524999999999998         -873.11659297693745
  0.10610000000000000         -987.89918708286814
  0.10694999999999999         -1115.2122307908414
  0.10779999999999998         -1256.1666199366257
  0.10865000000000000         -1411.9362517405759
  0.10949999999999999         -1583.7502380277406
  0.11035000000000000         -1772.8632509664958
  0.11119999999999999         -1980.5463393310558
  0.11204999999999998         -2208.0739391670968
  0.11290000000000000         -2456.6950579243257
  0.11374999999999999         -2727.6313591179287
  0.11459999999999998         -3022.0519048420692
  0.11545000000000000         -3341.0722593202991
  0.11629999999999999         -3685.7219298695991
  0.11715000000000000         -4056.9576395927570
  0.11799999999999999         -4455.6271395813819
  0.11884999999999998         -4882.4584991620095
  0.11970000000000000         -5338.0298415563302
  0.12054999999999999         -5822.7379861857717
  0.12139999999999998         -6336.7812406719340
  0.12225000000000000         -6880.1301567370047
  0.12309999999999999         -7452.4944731858532
  0.12395000000000000         -8053.2987099130632
  0.12479999999999999         -8681.6194846947292
  0.12564999999999998         -9336.1413963217274
  0.12650000000000000         -10015.171756199012
  0.12734999999999999         -10716.483761022089
  0.12819999999999998         -11437.366575899176
  0.12905000000000000         -12174.487608218160
  0.12989999999999999         -12923.903388596629
  0.13074999999999998         -13680.990461781153
  0.13159999999999999         -14440.381376782358
  0.13245000000000001         -15196.003164810130
  0.13329999999999997         -15941.017507666040
  0.13414999999999999         -16667.865961210486
  0.13500000000000001         -17368.230750185834
  0.13584999999999997         -18033.075305702943
  0.13669999999999999         -18652.580717683228
  0.13755000000000001         -19216.392599289444
  0.13839999999999997         -19713.390407081162
  0.13924999999999998         -20131.884647816041
  0.14010000000000000         -20459.677949563615
  0.14094999999999996         -20683.993958887349
  0.14179999999999998         -20791.952145175987
  0.14265000000000000         -20770.232071376809
  0.14350000000000002         -20605.470433360402
  0.14434999999999998         -20284.206952297445
  0.14520000000000000         -19793.169343518937
  0.14605000000000001         -19119.440221104709
  0.14689999999999998         -18250.465265529961
  0.14774999999999999         -17174.438722619790
  0.14860000000000001         -15880.546696166972
  0.14944999999999997         -14358.803196063285
  0.15029999999999999         -12600.822173989067
  0.15115000000000001         -10599.789021696586
  0.15199999999999997         -8350.6620915468102
  0.15284999999999999         -5850.7055055067403
  0.15370000000000000         -3099.2114484606136
  0.15454999999999997         -98.090529948352298
  0.15539999999999998          3148.0427334440146
  0.15625000000000000          6631.9524016743399
  0.15709999999999996          10343.281422580505
  0.15794999999999998          14268.836084224838
  0.15880000000000000          18392.506898552539
  0.15965000000000001          22694.707257283208
  0.16049999999999998          27152.744347395073
  0.16134999999999999          31740.781911426304
  0.16220000000000001          36430.112022853587
  0.16304999999999997          41188.500255278283
  0.16389999999999999          45981.098749855417
  0.16475000000000001          50771.024130177153
  0.16559999999999997          55518.169762257283
  0.16644999999999999          60181.030451817511
  0.16730000000000000          64716.447897208876
  0.16814999999999997          69079.757401508832
  0.16899999999999998          73225.859807465167
  0.16985000000000000          77108.857383768220
  0.17069999999999996          80683.124748884205
  0.17154999999999998          83904.002326952017
  0.17240000000000000          86727.339791530714
  0.17325000000000002          89111.073830272886
  0.17409999999999998          91015.295871479146
  0.17494999999999999          92402.672236269718
  0.17580000000000001          93239.821864526151
  0.17664999999999997          93496.681521757389
  0.17749999999999999          93148.085487830424
  0.17835000000000001          92173.111812027069
  0.17919999999999997          90556.547372285102
  0.18004999999999999          88288.480357813460
  0.18090000000000001          85364.903592726681
  0.18174999999999997          81787.690939645865
  0.18259999999999998          77564.785096956039
  0.18345000000000000          72710.740627062536
  0.18429999999999996          67246.193171799881
  0.18514999999999998          61198.380765937698
  0.18600000000000000          54600.343868329364
  0.18684999999999996          47491.396724174789
  0.18769999999999998          39916.309601551984
  0.18855000000000000          31925.276208267973
  0.18940000000000001          23573.220862895905
  0.19024999999999997          14919.638652831462
  0.19109999999999999          6027.3813780333858
  0.19195000000000001         -3037.3642291411188
  0.19279999999999997         -12205.699910688745
  0.19364999999999999         -21407.249102460704
  0.19450000000000001         -30570.349517579583
  0.19534999999999997         -39623.308077926820
  0.19619999999999999         -48494.498216031803
  0.19705000000000000         -57113.846506431168
  0.19789999999999996         -65413.030298218087
  0.19874999999999998         -73326.417968021764
  0.19960000000000000         -80791.706389082014
  0.20044999999999996         -87750.778783978836
  0.20129999999999998         -94150.050671817546
  0.20215000000000000         -99941.322797761881
  0.20300000000000001         -105082.16283108563
  0.20384999999999998         -109536.01865503448
  0.20469999999999999         -113272.38283547935
  0.20555000000000001         -116267.99208004054
  0.20639999999999997         -118505.98754507801
  0.20724999999999999         -119976.89253282279
  0.20810000000000001         -120677.84178528967
  0.20894999999999997         -120613.29329191614
  0.20979999999999999         -119794.15094914337
  0.21065000000000000         -118238.15467530797
  0.21149999999999997         -115969.17733487007
  0.21234999999999998         -113017.05169234127
  0.21320000000000000         -109417.74444538544
  0.21404999999999996         -105211.39798092275
  0.21489999999999998         -100442.81464637734
  0.21575000000000000         -95161.077894262315
  0.21659999999999996         -89418.220184146354
  0.21744999999999998         -83269.916147325988
  0.21829999999999999         -76773.013882608502
  0.21915000000000001         -69986.768941412127
  0.21999999999999997         -62970.684625775291
  0.22084999999999999         -55784.940448890629
  0.22170000000000001         -48488.594949534760
  0.22254999999999997         -41139.976990136456
  0.22339999999999999         -33796.155224134505
  0.22425000000000000         -26511.787037688508
  0.22509999999999997         -19339.313885040836
  0.22594999999999998         -12327.876921427571
  0.22680000000000000         -5523.3617151517556
  0.22764999999999996          1031.8738482655644
  0.22849999999999998          7299.5141705565984
  0.22935000000000000          13244.950680898279
  0.23019999999999996          18838.400769925567
  0.23104999999999998          24053.966485884954
  0.23190000000000000          28870.843633184042
  0.23275000000000001          33272.328712588642
  0.23359999999999997          37246.247728498776
  0.23444999999999999          40784.895632882777
  0.23530000000000001          43884.689890165653
  0.23614999999999997          46546.145036214948
  0.23699999999999999          48773.792860976835
  0.23785000000000001          50575.360544285119
  0.23869999999999997          51961.931023793615
  0.23954999999999999          52947.629687689900
  0.24040000000000000          53549.105491444432
  0.24124999999999996          53785.289282503159
  0.24209999999999998          53676.963486910667
  0.24295000000000000          53246.722045686562
  0.24379999999999996          52518.425077618114
  0.24464999999999998          51517.180398565659
  0.24550000000000000          50268.900607480646
  0.24634999999999996          48799.756501551565
  0.24719999999999998          47136.356017801692
  0.24804999999999999          45305.128399942056
  0.24890000000000001          43332.171658785133
  0.24974999999999997          41242.611011929759
  0.25059999999999999          39060.756018442407
  0.25145000000000001          36809.689374085763
  0.25229999999999997          34511.252622579683
  0.25314999999999999          32186.220459372325
  0.25400000000000000          29853.788429833523
  0.25484999999999997          27531.928967046202
  0.25569999999999998          25237.023837310400
  0.25655000000000000          22984.168383028355
  0.25739999999999996          20787.013546783663
  0.25824999999999998          18657.376487766782
  0.25910000000000000          16605.510813563644
  0.25994999999999996          14640.012857790487
  0.26079999999999998          12767.833807684205
  0.26164999999999999          10994.313816324000
  0.26249999999999996          9323.4277383200497
  0.26334999999999997          7757.8018555494209
  0.26419999999999999          6298.9635758256672
  0.26505000000000001          4947.3995981989465
  0.26589999999999997          3702.7964040108559
  0.26674999999999999          2563.8837323604498
  0.26760000000000000          1528.6792381248677
  0.26844999999999997          594.41061431543415
  0.26929999999999998         -242.28410050900266
  0.27015000000000000         -985.40894143720971
  0.27099999999999996         -1639.5215643755691
  0.27184999999999998         -2209.4601957329414
  0.27270000000000000         -2700.3074999526380
  0.27354999999999996         -3117.3704446066959
  0.27439999999999998         -3465.9971579187463
  0.27524999999999999         -3751.4510633801765
  0.27609999999999996         -3979.0350611314234
  0.27694999999999997         -4153.7592699246943
  0.27779999999999999         -4280.6242625353825
  0.27865000000000001         -4364.4988964286113
  0.27949999999999997         -4410.0068967324160
  0.28034999999999999         -4421.5695772383497
  0.28120000000000001         -4403.5225824304453
  0.28204999999999997         -4359.8504562217622
  0.28289999999999998         -4294.3607649900096
  0.28375000000000000         -4210.5539480413454
  0.28459999999999996         -4111.7324677969609
  0.28544999999999998         -4000.7774748782940
  0.28630000000000000         -3880.4438133948665
  0.28714999999999996         -3753.0185680504719
  0.28799999999999998         -3620.5850668132794
  0.28885000000000000         -3484.8669100832603
  0.28969999999999996         -3347.3981987591314
  0.29054999999999997         -3209.4682037141406
  0.29139999999999999         -3072.2956109626293
  0.29224999999999995         -2936.8315053518936
  0.29309999999999997         -2803.9651534419995
  0.29394999999999999         -2674.4062127749989
  0.29480000000000001         -2548.7700357741969
  0.29564999999999997         -2427.4784812054727
  0.29649999999999999         -2310.7961432270563
  0.29735000000000000         -2198.8671244348675
  0.29819999999999997         -2091.6826592894840
  0.29904999999999998         -1989.2025905186556
  0.29990000000000000         -1891.3368075940323
  0.30074999999999996         -1798.0075939182930
  0.30159999999999998         -1709.1440866489475
  0.30245000000000000         -1624.7069855815707
  0.30329999999999996         -1544.6273061847526
  0.30414999999999998         -1468.8191166224080
  0.30499999999999999         -1397.1212941091662
  0.30584999999999996         -1329.2761340780819
  0.30669999999999997         -1264.9962591092849
  0.30754999999999999         -1203.9105625594680
  0.30840000000000001         -1145.6693520216181
  0.30924999999999997         -1089.9591881729850
  0.31009999999999999         -1036.5182917565755
  0.31095000000000000         -985.18012814334770
  0.31179999999999997         -935.85913946758592
  0.31264999999999998         -888.47967227344645
  0.31350000000000000         -842.99103416130583
  0.31434999999999996         -799.32871835068568
  0.31519999999999998         -757.37486935217430
  0.31605000000000000         -717.04067330320720
  0.31689999999999996         -678.19781232466335
  0.31774999999999998         -640.80616517285512
  0.31859999999999999         -604.84228731514895
  0.31944999999999996         -570.31847808241503
  0.32029999999999997         -537.29862015561230
  0.32114999999999999         -505.82073286743667
  0.32199999999999995         -475.92850903351570
  0.32284999999999997         -447.59920719901942
  0.32369999999999999         -420.81179057304411
  0.32455000000000001         -395.52350863576817
  0.32539999999999997         -371.70774672885807
  0.32624999999999998         -349.41283456386202
  0.32710000000000000         -328.73067141183856
  0.32794999999999996         -309.78941823573689
  0.32879999999999998         -292.73981470422626
  0.32965000000000000         -277.69114500618417
  0.33049999999999996         -264.67819824107460
  0.33134999999999998         -253.65003589423480
  0.33220000000000000         -244.47046761581117
  0.33304999999999996         -236.96497170274461
  0.33389999999999997         -230.95003095220525
  0.33474999999999999         -226.29185897340386
  0.33559999999999995         -222.90868585545161
  0.33644999999999997         -220.77309723307349
  0.33729999999999999         -219.87373076075602
  0.33815000000000001         -220.15721632916339
  0.33899999999999997         -221.51882778267304
  0.33984999999999999         -223.71425081911997
  0.34070000000000000         -226.43481014218088
  0.34154999999999996         -229.31556987074299
  0.34239999999999998         -231.99997879913755
  0.34325000000000000         -234.20617369519698
  0.34409999999999996         -235.77405953187269
  0.34494999999999998         -236.66951309940492
  0.34580000000000000         -236.95613822996106
  0.34664999999999996         -236.73736216355144
  0.34749999999999998         -236.09774714883409
  0.34834999999999999         -235.06131302153540
  0.34919999999999995         -233.55468243992954
  0.35004999999999997         -231.41500855313205
  0.35089999999999999         -228.48085541683102
  0.35174999999999995         -224.59150206112633
  0.35259999999999997         -219.68417530602113
  0.35344999999999999         -213.78267413990022
  0.35430000000000000         -207.02253308360207
  0.35514999999999997         -199.58630526162125
  0.35599999999999998         -191.67552579766775
  0.35685000000000000         -183.43484575761838
  0.35769999999999996         -174.96269205571048
  0.35854999999999998         -166.28107967472036
  0.35940000000000000         -157.37640763032351
  0.36024999999999996         -148.23983288009444
  0.36109999999999998         -138.91190083726190
  0.36194999999999999         -129.48079000836779
  0.36279999999999996         -120.09448518967841
  0.36364999999999997         -110.91757587589518
  0.36449999999999999         -102.07583089547384
  0.36534999999999995         -93.636755150143159
  0.36619999999999997         -85.570365725988978
  0.36704999999999999         -77.764688473701867
  0.36790000000000000         -70.083419916737256
  0.36874999999999997         -62.376952812987682
  0.36959999999999998         -54.563692165754539
  0.37045000000000000         -46.646372179421761
  0.37129999999999996         -38.719250454768293
  0.37214999999999998         -30.942654570625201
  0.37300000000000000         -23.494610582425445
  0.37384999999999996         -16.528344714395672
  0.37469999999999998         -10.141688391953366
  0.37554999999999999         -4.3538155428591541
  0.37639999999999996         0.84804012199480239
  0.37724999999999997          5.5032777030713707
  0.37809999999999999          9.6351836956775259
  0.37894999999999995          13.204599428382966