 -0.12000000000000000         -7.3923941360770097E-010
 -0.11914999999999999         -1.7571447469996787E-009
 -0.11830000000000000         -1.6815567489251821E-009
 -0.11745000000000000         -8.4530594402859122E-010
 -0.11660000000000000         -7.4041629465533529E-010
 -0.11574999999999999         -3.2231690747075423E-009
 -0.11490000000000000         -9.2251562197702503E-009
 -0.11405000000000000         -1.7707423057973903E-008
 -0.11320000000000000         -2.5597041362115635E-008
 -0.11234999999999999         -2.9030852622590911E-008
 -0.11150000000000000         -2.5556351626272934E-008
 -0.11065000000000000         -1.6313568839023398E-008
 -0.10979999999999999         -6.9734430174372299E-009
 -0.10894999999999999         -6.5337741861016269E-009
 -0.10810000000000000         -2.3924695688860969E-008
 -0.10725000000000000         -6.3447935601951272E-008
 -0.10639999999999999         -1.2090938831640857E-007
 -0.10554999999999999         -1.8247268711122292E-007
 -0.10470000000000000         -2.2755600992913827E-007
 -0.10385000000000000         -2.3565641213077806E-007
 -0.10299999999999999         -1.9529212315404329E-007
 -0.10214999999999999         -1.1196721199987804E-007
 -0.10130000000000000         -1.1785675777829994E-008
 -0.10045000000000000          6.1647825042922572E-008
  -9.9599999999999994E-002     5.7301019778638062E-008
  -9.8750000000000004E-002    -6.8521286865309364E-008
  -9.7900000000000001E-002    -3.3706788982783474E-007
  -9.7049999999999997E-002    -7.3677815764154841E-007
  -9.6199999999999994E-002    -1.2217434175825396E-006
  -9.5349999999999990E-002    -1.7204613530890814E-006
  -9.4500000000000001E-002    -2.1529583433935232E-006
  -9.3649999999999997E-002    -2.4513315930450989E-006
  -9.2799999999999994E-002    -2.5772379504312807E-006
  -9.1950000000000004E-002    -2.5305212433506799E-006
  -9.1100000000000000E-002    -2.3459415411075661E-006
  -9.0249999999999997E-002    -2.0789429886216656E-006
  -8.9399999999999993E-002    -1.7852857364853173E-006
  -8.8549999999999990E-002    -1.5016097198549836E-006
  -8.7700000000000000E-002    -1.2338209822986452E-006
  -8.6849999999999997E-002    -9.5735708361648604E-007
  -8.5999999999999993E-002    -6.2900724679917903E-007
  -8.5150000000000003E-002    -2.0549364686665533E-007
  -8.4300000000000000E-002     3.3883608972383283E-007
  -8.3449999999999996E-002     1.0029100145422640E-006
  -8.2600000000000007E-002     1.7630293050387075E-006
  -8.1749999999999989E-002     2.5897733448480579E-006
  -8.0900000000000000E-002     3.4719784018979225E-006
  -8.0049999999999996E-002     4.4386189252056800E-006
  -7.9199999999999993E-002     5.5692759341307441E-006
  -7.8350000000000003E-002     6.9874838929291028E-006
  -7.7499999999999999E-002     8.8373665673411923E-006
  -7.6649999999999996E-002     1.1250945216189131E-005
  -7.5800000000000006E-002     1.4317976696634311E-005
  -7.4949999999999989E-002     1.8071111981025686E-005
  -7.4099999999999999E-002     2.2495250511502527E-005
  -7.3249999999999996E-002     2.7561700538475762E-005
  -7.2399999999999992E-002     3.3279810684727144E-005
  -7.1550000000000002E-002     3.9750420011273175E-005
  -7.0699999999999999E-002     4.7203860941184299E-005
  -6.9849999999999995E-002     5.6007922180626276E-005
  -6.9000000000000006E-002     6.6641144654910149E-005
  -6.8149999999999988E-002     7.9636565613872478E-005
  -6.7299999999999999E-002     9.5513283489193036E-005
  -6.6449999999999995E-002     1.1471640863144065E-004
  -6.5599999999999992E-002     1.3758846709831981E-004
  -6.4750000000000002E-002     1.6438361059349592E-004
  -6.3899999999999998E-002     1.9532476278421738E-004
  -6.3049999999999995E-002     2.3069078600506456E-004
  -6.2199999999999998E-002     2.7090807922166063E-004
  -6.1350000000000002E-002     3.1662139530338524E-004
  -6.0499999999999998E-002     3.6872221709362166E-004
  -5.9650000000000002E-002     4.2832637398288170E-004
  -5.8799999999999998E-002     4.9670723589790786E-004
  -5.7950000000000002E-002     5.7520341507602503E-004
  -5.7099999999999998E-002     6.6513183278043599E-004
  -5.6249999999999994E-002     7.6773083282793237E-004
  -5.5400000000000005E-002     8.8415153739629577E-004
  -5.4550000000000001E-002     1.0155014449240989E-003
  -5.3699999999999998E-002     1.1629239288009972E-003
  -5.2849999999999994E-002     1.3276900767899209E-003
  -5.2000000000000005E-002     1.5112777926761640E-003
  -5.1150000000000001E-002     1.7154120564714151E-003
  -5.0299999999999997E-002     1.9420526430959334E-003
  -4.9449999999999994E-002     2.1933368312414356E-003
  -4.8600000000000004E-002     2.4714969543296935E-003
  -4.7750000000000001E-002     2.7787772386889866E-003
  -4.6899999999999997E-002     3.1173624104593365E-003
  -4.6049999999999994E-002     3.4893563346169824E-003
  -4.5200000000000004E-002     3.8967890207182408E-003
  -4.4350000000000001E-002     4.3416537742645674E-003
  -4.3499999999999997E-002     4.8259409324906272E-003
  -4.2649999999999993E-002     5.3516597563259237E-003
  -4.1800000000000004E-002     5.9208158105032464E-003
  -4.0950000000000000E-002     6.5353511444582683E-003
  -4.0099999999999997E-002     7.1970428903549051E-003
  -3.9249999999999993E-002     7.9073811637180372E-003
  -3.8400000000000004E-002     8.6674812554652647E-003
  -3.7550000000000000E-002     9.4779849633748331E-003
  -3.6699999999999997E-002     1.0339032199406746E-002
  -3.5850000000000007E-002     1.1250280599337878E-002
  -3.5000000000000003E-002     1.2210916720151151E-002
  -3.4150000000000000E-002     1.3219665591039986E-002
  -3.3299999999999996E-002     1.4274770125390031E-002
  -3.2450000000000007E-002     1.5373916770931308E-002
  -3.1600000000000003E-002     1.6514173473387888E-002
  -3.0750000000000000E-002     1.7691792644829493E-002
  -2.9899999999999996E-002     1.8902095868650291E-002
  -2.9050000000000006E-002     2.0139361500091098E-002
  -2.8200000000000003E-002     2.1396685836383426E-002
  -2.7349999999999999E-002     2.2666035251160944E-002
  -2.6499999999999996E-002     2.3938215967954757E-002
  -2.5650000000000006E-002     2.5202890933846523E-002
  -2.4800000000000003E-002     2.6448732687096483E-002
  -2.3949999999999999E-002     2.7663427389864131E-002
  -2.3099999999999996E-002     2.8833690001226486E-002
  -2.2250000000000006E-002     2.9945225031986107E-002
  -2.1400000000000002E-002     3.0982708051767185E-002
  -2.0549999999999999E-002     3.1929751452514754E-002
  -1.9699999999999995E-002     3.2768888637896912E-002
  -1.8850000000000006E-002     3.3481729509215657E-002
  -1.8000000000000002E-002     3.4049061818799228E-002
  -1.7149999999999999E-002     3.4450928261730601E-002
  -1.6299999999999995E-002     3.4666958549488959E-002
  -1.5450000000000005E-002     3.4676646601350510E-002
  -1.4600000000000002E-002     3.4459561048541740E-002
  -1.3749999999999998E-002     3.3995510583285066E-002
  -1.2899999999999995E-002     3.3264716985512928E-002
  -1.2050000000000005E-002     3.2248002010874216E-002
  -1.1200000000000002E-002     3.0927087131910967E-002
  -1.0349999999999998E-002     2.9284786081586391E-002
  -9.5000000000000084E-003     2.7305315988859678E-002
  -8.6500000000000049E-003     2.4974545661498006E-002
  -7.8000000000000014E-003     2.2280278030670505E-002
  -6.9499999999999978E-003     1.9212761017008553E-002
  -6.1000000000000082E-003     1.5765301970638648E-002
  -5.2500000000000047E-003     1.1934181862060113E-002
  -4.4000000000000011E-003     7.7191032236182695E-003
  -3.5499999999999976E-003     3.1235242403547803E-003
  -2.7000000000000079E-003    -1.8454502997960944E-003
  -1.8500000000000044E-003    -7.1766134201640113E-003
  -1.0000000000000009E-003    -1.2854459313400186E-002
  -1.4999999999999736E-004    -1.8859201999384685E-002
   6.9999999999999230E-004    -2.5166733489778256E-002
   1.5499999999999958E-003    -3.1748259604559237E-002
   2.3999999999999994E-003    -3.8570288483926914E-002
   3.2500000000000029E-003    -4.5594988733832956E-002
   4.0999999999999925E-003    -5.2780117387225434E-002
   4.9499999999999961E-003    -6.0079123649235851E-002
   5.7999999999999996E-003    -6.7441321025472734E-002
   6.6499999999999893E-003    -7.4812298965481194E-002
   7.5000000000000067E-003    -8.2134524624863481E-002
   8.3499999999999963E-003    -8.9347433884820304E-002
   9.1999999999999860E-003    -9.6387950770634168E-002
   1.0050000000000003E-002   -0.10319104630467284
   1.0899999999999993E-002   -0.10969019081568401
   1.1750000000000010E-002   -0.11581803310498830
   1.2600000000000000E-002   -0.12150718990671622
   1.3449999999999990E-002   -0.12669116448455500
   1.4300000000000007E-002   -0.13130500430716174
   1.5149999999999997E-002   -0.13528606522472364
   1.5999999999999986E-002   -0.13857480261269658
   1.6850000000000004E-002   -0.14111550557804647
   1.7699999999999994E-002   -0.14285706384292807
   1.8549999999999983E-002   -0.14375343656672962
   1.9400000000000001E-002   -0.14376447580782362
   2.0249999999999990E-002   -0.14285654618384605
   2.1100000000000008E-002   -0.14100316042761218
   2.1949999999999997E-002   -0.13818569671037562
   2.2799999999999987E-002   -0.13439369785247163
   2.3650000000000004E-002   -0.12962561873133899
   2.4499999999999994E-002   -0.12388918502036718
   2.5349999999999984E-002   -0.11720122512863010
   2.6200000000000001E-002   -0.10958800634622975
   2.7049999999999991E-002   -0.10108504718577536
   2.7900000000000008E-002    -9.1736934781426527E-002
   2.8749999999999998E-002    -8.1597013207674068E-002
   2.9599999999999987E-002    -7.0726858646320334E-002
   3.0450000000000005E-002    -5.9196071169236489E-002
   3.1299999999999994E-002    -4.7081779199314014E-002
   3.2149999999999984E-002    -3.4467939401144572E-002
   3.3000000000000002E-002    -2.1444636658010975E-002
   3.3849999999999991E-002    -8.1073485414601947E-003
   3.4700000000000009E-002     5.4440679582328077E-003
   3.5549999999999998E-002     1.9106583237059400E-002
   3.6399999999999988E-002     3.2774720275927489E-002
   3.7250000000000005E-002     4.6341909564839620E-002
   3.8099999999999995E-002     5.9701803601259831E-002
   3.8949999999999985E-002     7.2749075065556973E-002
   3.9800000000000002E-002     8.5380880870448372E-002
   4.0649999999999992E-002     9.7497928460193173E-002
   4.1500000000000009E-002    0.10900513175543124
   4.2349999999999999E-002    0.11981268082941324
   4.3199999999999988E-002    0.12983725216185837
   4.4050000000000006E-002    0.13900275504819168
   4.4899999999999995E-002    0.14724084167510967
   4.5749999999999985E-002    0.15449199687409279
   4.6600000000000003E-002    0.16070617660746711
   4.7449999999999992E-002    0.16584311237240901
   4.8299999999999982E-002    0.16987267356198923
   4.9149999999999999E-002    0.17277518673911446
   4.9999999999999989E-002    0.17454153247513124
   5.0850000000000006E-002    0.17517312930994686
   5.1699999999999996E-002    0.17468174833625127
   5.2549999999999986E-002    0.17308937419751652
   5.3400000000000003E-002    0.17042781685345762
   5.4249999999999993E-002    0.16673803376224203
   5.5099999999999982E-002    0.16206961515804091
   5.5950000000000000E-002    0.15648020629240347
   5.6799999999999989E-002    0.15003430995429964
   5.7650000000000007E-002    0.14280258548044550
   5.8499999999999996E-002    0.13486119108228256
   5.9349999999999986E-002    0.12629063345698588
   6.0200000000000004E-002    0.11717491513453589
   6.1049999999999993E-002    0.10760108286603834
   6.1899999999999983E-002     9.7657853574125597E-002
   6.2750000000000000E-002     8.7434589047412220E-002
   6.3599999999999990E-002     7.7020231142573989E-002
   6.4450000000000007E-002     6.6502564922968521E-002
   6.5299999999999997E-002     5.5967254199051540E-002
   6.6149999999999987E-002     4.5496673508300785E-002
   6.7000000000000004E-002     3.5169391640407263E-002
   6.7849999999999994E-002     2.5059281996643468E-002
   6.8699999999999983E-002     1.5235273396715855E-002
   6.9550000000000001E-002     5.7608325076679394E-003
   7.0399999999999990E-002    -3.3064762172411912E-003
   7.1249999999999980E-002    -1.1915283436515794E-002
   7.2099999999999997E-002    -2.0020738199934395E-002
   7.2949999999999987E-002    -2.7584628460564576E-002
   7.3800000000000004E-002    -3.4575659984057761E-002
   7.4649999999999994E-002    -4.0969500196094577E-002
   7.5499999999999984E-002    -4.6748639434049132E-002
   7.6350000000000001E-002    -5.1902119315706416E-002
   7.7199999999999991E-002    -5.6425260739662093E-002
   7.8049999999999981E-002    -6.0319403883449536E-002
   7.8899999999999998E-002    -6.3591538440999532E-002
   7.9749999999999988E-002    -6.6253958982016720E-002
   8.0600000000000005E-002    -6.8323809727635604E-002
   8.1449999999999995E-002    -6.9822610165768212E-002
   8.2299999999999984E-002    -7.0775819208309845E-002
   8.3150000000000002E-002    -7.1212246748839900E-002
   8.3999999999999991E-002    -7.1163493449423396E-002
   8.4849999999999981E-002    -7.0663414368302271E-002
   8.5699999999999998E-002    -6.9747700232822993E-002
   8.6549999999999988E-002    -6.8453360716981645E-002
   8.7400000000000005E-002    -6.6818192523747447E-002
   8.8249999999999995E-002    -6.4880420888072762E-002
   8.9099999999999985E-002    -6.2678304538323099E-002
   8.9950000000000002E-002    -6.0249635726159732E-002
   9.0799999999999992E-002    -5.7631318654937966E-002
   9.1649999999999981E-002    -5.4859083963216676E-002
   9.2499999999999999E-002    -5.1967148682822220E-002
   9.3349999999999989E-002    -4.8987910912729006E-002
   9.4200000000000006E-002    -4.5951809541645586E-002
   9.5049999999999996E-002    -4.2887143967954060E-002
   9.5899999999999985E-002    -3.9820018019532867E-002
   9.6750000000000003E-002    -3.6774300036880675E-002
   9.7599999999999992E-002    -3.3771515441331751E-002
   9.8449999999999982E-002    -3.0830914829583642E-002
   9.9299999999999999E-002    -2.7969534766966443E-002
  0.10014999999999999         -2.5202081637823059E-002
  0.10099999999999998         -2.2541003457147810E-002
  0.10185000000000000         -1.9996578338615543E-002
  0.10269999999999999         -1.7576968681295151E-002
  0.10355000000000000         -1.5288289973962595E-002
  0.10439999999999999         -1.3134833133793135E-002
  0.10524999999999998         -1.1119157319756458E-002
  0.10610000000000000         -9.2422793609136019E-003
  0.10694999999999999         -7.5038341836478253E-003
  0.10779999999999998         -5.9021793585706025E-003
  0.10865000000000000         -4.4346053488266450E-003
  0.10949999999999999         -3.0975474872615046E-003
  0.11035000000000000         -1.8867701766926001E-003
  0.11119999999999999         -7.9744028094970573E-004
  0.11204999999999998          1.7568263681380604E-004
  0.11290000000000000          1.0381314279883742E-003
  0.11374999999999999          1.7957301398555275E-003
  0.11459999999999998          2.4545762126021711E-003
  0.11545000000000000          3.0210075843490536E-003
  0.11629999999999999          3.5015030417605091E-003
  0.11715000000000000          3.9026437576748885E-003
  0.11799999999999999          4.2310107057108295E-003
  0.11884999999999998          4.4930146804931185E-003
  0.11970000000000000          4.6948069441089396E-003
  0.12054999999999999          4.8421912680383788E-003
  0.12139999999999998          4.9405590606163971E-003
  0.12225000000000000          4.9948752802235728E-003
  0.12309999999999999          5.0097538415475864E-003
  0.12395000000000000          4.9895754139845311E-003
  0.12479999999999999          4.9385520393479257E-003
  0.12564999999999998          4.8607688029335284E-003
  0.12650000000000000          4.7601771861996616E-003
  0.12734999999999999          4.6405771396071122E-003
  0.12819999999999998          4.5055140008141131E-003
  0.12905000000000000          4.3581936609941221E-003
  0.12989999999999999          4.2014254230703816E-003
  0.13074999999999998          4.0376020407633688E-003
  0.13159999999999999          3.8687328254118857E-003
  0.13245000000000001          3.6965468146003123E-003
  0.13329999999999997          3.5225851044652702E-003
  0.13414999999999999          3.3482590974030940E-003
  0.13500000000000001          3.1749479902894923E-003
  0.13584999999999997          3.0039765036505841E-003
  0.13669999999999999          2.8365653891417059E-003
  0.13755000000000001          2.6737864236582010E-003
  0.13839999999999997          2.5164850895355566E-003
  0.13924999999999998          2.3652492480390180E-003
  0.14010000000000000          2.2204120515230959E-003
  0.14094999999999996          2.0820983145928306E-003
  0.14179999999999998          1.9503125528073186E-003
  0.14265000000000000          1.8250005069084716E-003
  0.14350000000000002          1.7061013005725410E-003
  0.14434999999999998          1.5935786166530375E-003
  0.14520000000000000          1.4874148675071892E-003
  0.14605000000000001          1.3875762342198804E-003
  0.14689999999999998          1.2939574679963158E-003
  0.14774999999999999          1.2063429000917516E-003
  0.14860000000000001          1.1244108695352625E-003
  0.14944999999999997          1.0477547168226175E-003
  0.15029999999999999          9.7593784706536118E-004
  0.15115000000000001          9.0854964168169674E-004
  0.15199999999999997          8.4526917882419151E-004
  0.15284999999999999          7.8589947675102522E-004
  0.15370000000000000          7.3035984208715389E-004
  0.15454999999999997          6.7865353395579037E-004
  0.15539999999999998          6.3082046377900438E-004
  0.15625000000000000          5.8687689769942257E-004
  0.15709999999999996          5.4677229705292236E-004
  0.15794999999999998          5.1038906301652037E-004
  0.15880000000000000          4.7753750613776732E-004
  0.15965000000000001          4.4798523158812978E-004
  0.16049999999999998          4.2151270910810115E-004
  0.16134999999999999          3.9794674020392408E-004
  0.16220000000000001          3.7717804209383757E-004
  0.16304999999999997          3.5917712343957564E-004
  0.16389999999999999          3.4397670052219609E-004
  0.16475000000000001          3.3162737929841893E-004
  0.16559999999999997          3.2216837742428384E-004
  0.16644999999999999          3.1558789267129364E-004
  0.16730000000000000          3.1178889105621695E-004
  0.16814999999999997          3.1058547315960145E-004
  0.16899999999999998          3.1170877055606926E-004
  0.16985000000000000          3.1482452526603521E-004
  0.17069999999999996          3.1956547696314694E-004
  0.17154999999999998          3.2556994264121319E-004
  0.17240000000000000          3.3248836507730040E-004
  0.17325000000000002          3.3998291757936846E-004
  0.17409999999999998          3.4774054952008598E-004
  0.17494999999999999          3.5546431096106625E-004
  0.17580000000000001          3.6285751124237446E-004
  0.17664999999999997          3.6962825943006472E-004
  0.17749999999999999          3.7548272104510736E-004
  0.17835000000000001          3.8013623491793628E-004
  0.17919999999999997          3.8333790589105263E-004
  0.18004999999999999          3.8487922156476287E-004
  0.18090000000000001          3.8461353047926925E-004
  0.18174999999999997          3.8246350912292686E-004
  0.18259999999999998          3.7841374871778338E-004
  0.18345000000000000          3.7250291055952267E-004
  0.18429999999999996          3.6479948296523976E-004
  0.18514999999999998          3.5538072471521707E-004
  0.18600000000000000          3.4432047148889313E-004
  0.18684999999999996          3.3167840686639015E-004
  0.18769999999999998          3.1750644540299092E-004
  0.18855000000000000          3.0187611306916153E-004
  0.18940000000000001          2.8490095522688510E-004
  0.19024999999999997          2.6675948290033055E-004
  0.19109999999999999          2.4771231305550646E-004
  0.19195000000000001          2.2809105531206527E-004
  0.19279999999999997          2.0827500845271694E-004
  0.19364999999999999          1.8864612613503807E-004
  0.19450000000000001          1.6954132370902982E-004
  0.19534999999999997          1.5121314912730442E-004
  0.19619999999999999          1.3380485774898516E-004
  0.19705000000000000          1.1736190796034970E-004
  0.19789999999999996          1.0185659875366601E-004
  0.19874999999999998          8.7224126141856255E-005
  0.19960000000000000          7.3411145997111406E-005
  0.20044999999999996          6.0409599290421017E-005
  0.20129999999999998          4.8262379419727576E-005
  0.20215000000000000          3.7040044134974495E-005
  0.20300000000000001          2.6804606309379838E-005
  0.20384999999999998          1.7573840823736486E-005
  0.20469999999999999          9.2931223975562227E-006
  0.20555000000000001          1.8275116772102588E-006
  0.20639999999999997         -5.0152072439920416E-006
  0.20724999999999999         -1.1436947057486331E-005
  0.20810000000000001         -1.7599536815948632E-005
  0.20894999999999997         -2.3582546567082902E-005
  0.20979999999999999         -2.9372087743256951E-005
  0.21065000000000000         -3.4878867092319936E-005
  0.21149999999999997         -3.9977229252878779E-005
  0.21234999999999998         -4.4560244273480472E-005
  0.21320000000000000         -4.8586022774977920E-005
  0.21404999999999996         -5.2099488777559717E-005
  0.21489999999999998         -5.5212674467445496E-005
  0.21575000000000000         -5.8063025327348389E-005
  0.21659999999999996         -6.0750181918704357E-005
  0.21744999999999998         -6.3280383372123683E-005
  0.21829999999999999         -6.5540009867626897E-005
  0.21915000000000001         -6.7302590720204916E-005
  0.21999999999999997         -6.8274145172962251E-005
  0.22084999999999999         -6.8161771166019849E-005
  0.22170000000000001         -6.6740030717399518E-005
  0.22254999999999997         -6.3898217517194798E-005
  0.22339999999999999         -5.9651333214404137E-005
  0.22425000000000000         -5.4112525377131326E-005
  0.22509999999999997         -4.7443671536080134E-005
  0.22594999999999998         -3.9795263999483957E-005
  0.22680000000000000         -3.1264835046992834E-005
  0.22764999999999996         -2.1887496222483760E-005
  0.22849999999999998         -1.1657462223297401E-005
  0.22935000000000000         -5.7423448647047629E-007
  0.23019999999999996          1.1309710722154091E-005
  0.23104999999999998          2.3856975237972443E-005
  0.23190000000000000          3.6841458677893378E-005
  0.23275000000000001          4.9977461660106586E-005
  0.23359999999999997          6.2965322957919120E-005
  0.23444999999999999          7.5547303799679884E-005
  0.23530000000000001          8.7545116688730757E-005
  0.23614999999999997          9.8867191067594377E-005
  0.23699999999999999          1.0948890881322561E-004
  0.23785000000000001          1.1940595885278513E-004
  0.23869999999999997          1.2858741039307341E-004
  0.23954999999999999          1.3694214192079503E-004
  0.24040000000000000          1.4431108439002253E-004
  0.24124999999999996          1.5048829262176417E-004
  0.24209999999999998          1.5526419838811137E-004
  0.24295000000000000          1.5847392243238854E-004
  0.24379999999999996          1.6003673504959103E-004
  0.24464999999999998          1.5997482466849117E-004
  0.24550000000000000          1.5840094226885385E-004
  0.24634999999999996          1.5548767952882519E-004
  0.24719999999999998          1.5142731581492658E-004
  0.24804999999999999          1.4639562211083671E-004
  0.24890000000000001          1.4053460840080613E-004
  0.24974999999999997          1.3394903854384375E-004
  0.25059999999999999          1.2671844279622804E-004
  0.25145000000000001          1.1891760753884664E-004
  0.25229999999999997          1.1063241445572323E-004
  0.25314999999999999          1.0196387684705347E-004
  0.25400000000000000          9.3020168088246325E-005
  0.25484999999999997          8.3905490560883341E-005
  0.25569999999999998          7.4704419463117637E-005
  0.25655000000000000          6.5472380867619018E-005
  0.25739999999999996          5.6235343505171281E-005
  0.25824999999999998          4.6996453509351013E-005
  0.25910000000000000          3.7750805841839129E-005
  0.25994999999999996          2.8496261703057330E-005
  0.26079999999999998          1.9237768655583975E-005
  0.26164999999999999          9.9913562026498512E-006
  0.26249999999999996          7.8109720001964442E-007
  0.26334999999999997         -8.3696722387231230E-006
  0.26419999999999999         -1.7438536888377385E-005
  0.26505000000000001         -2.6403694202430489E-005
  0.26589999999999997         -3.5242144971018885E-005
  0.26674999999999999         -4.3925378136351086E-005
  0.26760000000000000         -5.2420368230275139E-005
  0.26844999999999997         -6.0691932169556055E-005
  0.26929999999999998         -6.8708499437432010E-005
  0.27015000000000000         -7.6448571055117538E-005
  0.27099999999999996         -8.3898871815418714E-005
  0.27184999999999998         -9.1046439577316681E-005
  0.27270000000000000         -9.7863957539106770E-005
  0.27354999999999996         -1.0429269437892146E-004
  0.27439999999999998         -1.1023243089021848E-004
  0.27524999999999999         -1.1554022591469439E-004
  0.27609999999999996         -1.2004548685354017E-004
  0.27694999999999997         -1.2357294682732308E-004
  0.27779999999999999         -1.2596900372059287E-004
  0.27865000000000001         -1.2712399414856263E-004
  0.27949999999999997         -1.2697958879425331E-004
  0.28034999999999999         -1.2552075488881200E-004
  0.28120000000000001         -1.2275518146274403E-004
  0.28204999999999997         -1.1869062515964182E-004
  0.28289999999999998         -1.1332033710528025E-004
  0.28375000000000000         -1.0662358768351432E-004
  0.28459999999999996         -9.8585001792405870E-005
  0.28544999999999998         -8.9225036786926926E-005
  0.28630000000000000         -7.8624803623468103E-005
  0.28714999999999996         -6.6938206169114213E-005
  0.28799999999999998         -5.4381953713449502E-005
  0.28885000000000000         -4.1201587288887864E-005
  0.28969999999999996         -2.7624812953186697E-005
  0.29054999999999997         -1.3817913264461282E-005
  0.29139999999999999          1.3739453647696026E-007
  0.29224999999999995          1.4237003830305221E-005
  0.29309999999999997          2.8515198248004819E-005
  0.29394999999999999          4.2984601755690003E-005
  0.29480000000000001          5.7576823150743659E-005
  0.29564999999999997          7.2104688078135769E-005
  0.29649999999999999          8.6261298440791577E-005
  0.29735000000000000          9.9658803738553414E-005
  0.29819999999999997          1.1190000186129612E-004
  0.29904999999999998          1.2265791894362909E-004
  0.29990000000000000          1.3173879524339363E-004
  0.30074999999999996          1.3911104667410626E-004
  0.30159999999999998          1.4488903542913276E-004
  0.30245000000000000          1.4927622650181288E-004
  0.30329999999999996          1.5248864569500622E-004
  0.30414999999999998          1.5468234648027135E-004
  0.30499999999999999          1.5590764390057205E-004
  0.30584999999999996          1.5610368510050524E-004
  0.30669999999999997          1.5513141306960012E-004
  0.30754999999999999          1.5283270209749480E-004
  0.30840000000000001          1.4909502068434838E-004
  0.30924999999999997          1.4390002691649746E-004
  0.31009999999999999          1.3734105377810187E-004
  0.31095000000000000          1.2960922976214053E-004
  0.31179999999999997          1.2094914487085401E-004
  0.31264999999999998          1.1160055539478403E-004
  0.31350000000000000          1.0174939571666442E-004
  0.31434999999999996          9.1498099264896078E-005
  0.31519999999999998          8.0863580280755604E-005
  0.31605000000000000          6.9799558430062798E-005
  0.31689999999999996          5.8237863951731226E-005
  0.31774999999999998          4.6133088262544294E-005
  0.31859999999999999          3.3497216291672691E-005
  0.31944999999999996          2.0419712510047621E-005
  0.32029999999999997          7.0649852406101855E-006
  0.32114999999999999         -6.3502981771117030E-006
  0.32199999999999995         -1.9590553466671264E-005
  0.32284999999999997         -3.2440683262831128E-005
  0.32369999999999999         -4.4741306226541660E-005
  0.32455000000000001         -5.6410856587013184E-005
  0.32539999999999997         -6.7450400335993752E-005
  0.32624999999999998         -7.7929373499263004E-005
  0.32710000000000000         -8.7953454282875738E-005
  0.32794999999999996         -9.7621776734053411E-005
  0.32879999999999998         -1.0698189552883734E-004
  0.32965000000000000         -1.1599500171174471E-004
  0.33049999999999996         -1.2452070727872187E-004
  0.33134999999999998         -1.3232662458416341E-004
  0.33220000000000000         -1.3912492540838338E-004
  0.33304999999999996         -1.4462592605779908E-004
  0.33389999999999997         -1.4859647471401861E-004
  0.33474999999999999         -1.5090582418301945E-004
  0.33559999999999995         -1.5154633894517259E-004
  0.33644999999999997         -1.5062349112419040E-004
  0.33729999999999999         -1.4831497038967766E-004
  0.33815000000000001         -1.4481241761962673E-004
  0.33899999999999997         -1.4026482778478849E-004
  0.33984999999999999         -1.3473892758052386E-004
  0.34070000000000000         -1.2821053899675065E-004
  0.34154999999999996         -1.2058864322996298E-004
  0.34239999999999998         -1.1176272880243877E-004
  0.34325000000000000         -1.0165886506181199E-004
  0.34409999999999996         -9.0285820384036915E-005
  0.34494999999999998         -7.7754581811657081E-005
  0.34580000000000000         -6.4266960335384617E-005