 -0.12000000000000000          0.0000000000000000
 -0.11914999999999999          0.0000000000000000
 -0.11830000000000000          0.0000000000000000
 -0.11745000000000000          0.0000000000000000
 -0.11660000000000000          0.0000000000000000
 -0.11574999999999999         -6.8197938739240596E-022
 -0.11490000000000000         -3.9650502108522069E-021
 -0.11405000000000000          2.3547077645736106E-022
 -0.11320000000000000          9.7101525152819262E-020
 -0.11234999999999999          5.8795983503690465E-019
 -0.11150000000000000          2.1310342231484685E-018
 -0.11065000000000000          5.5846384724620915E-018
 -0.10979999999999999          1.1075345757355966E-017
 -0.10894999999999999          1.6002272370692717E-017
 -0.10810000000000000          1.2545792314038486E-017
 -0.10725000000000000         -1.3347714434418081E-017
 -0.10639999999999999         -7.8428349140187146E-017
 -0.10554999999999999         -1.9154909705317576E-016
 -0.10470000000000000         -3.3682348485258900E-016
 -0.10385000000000000         -4.5691741943803345E-016
 -0.10299999999999999         -4.4800391348531692E-016
 -0.10214999999999999         -1.7845154998816205E-016
 -0.10130000000000000          4.6396413694189136E-016
 -0.10045000000000000          1.5058434082942013E-015
  -9.9599999999999994E-002     2.8274334284636331E-015
  -9.8750000000000004E-002     4.1376396687813897E-015
  -9.7900000000000001E-002     5.0040113563331643E-015
  -9.7049999999999997E-002     4.9308698578793766E-015
  -9.6199999999999994E-002     3.4518588611334411E-015
  -9.5349999999999990E-002     1.9688044671925241E-016
  -9.4500000000000001E-002    -5.0775367873738085E-015
  -9.3649999999999997E-002    -1.2448870153623263E-014
  -9.2799999999999994E-002    -2.1688141810416120E-014
  -9.1950000000000004E-002    -3.1943679615522215E-014
  -9.1100000000000000E-002    -4.1291921898431149E-014
  -9.0249999999999997E-002    -4.6392583428477437E-014
  -8.9399999999999993E-002    -4.2654385998915353E-014
  -8.8549999999999990E-002    -2.5304026022745193E-014
  -8.7700000000000000E-002     8.5708113789950234E-015
  -8.6849999999999997E-002     5.7549340892534883E-014
  -8.5999999999999993E-002     1.1419426280262540E-013
  -8.5150000000000003E-002     1.6567437512307754E-013
  -8.4300000000000000E-002     1.9768785488346387E-013
  -8.3449999999999996E-002     2.0116019771115806E-013
  -8.2600000000000007E-002     1.7904647600965291E-013
  -8.1749999999999989E-002     1.4881046184831657E-013
  -8.0900000000000000E-002     1.3615156922963276E-013
  -8.0049999999999996E-002     1.5838557755168974E-013
  -7.9199999999999993E-002     2.0151978066852273E-013
  -7.8350000000000003E-002     2.0173893723107027E-013
  -7.7499999999999999E-002     4.6354674358932302E-014
  -7.6649999999999996E-002    -3.9266413043519976E-013
  -7.5800000000000006E-002    -1.1901780829478003E-012
  -7.4949999999999989E-002    -2.2804425437268066E-012
  -7.4099999999999999E-002    -3.3871638963751161E-012
  -7.3249999999999996E-002    -4.0197601856409200E-012
  -7.2399999999999992E-002    -3.5780036669572744E-012
  -7.1550000000000002E-002    -1.5754498497739273E-012
  -7.0699999999999999E-002     2.0617448167138390E-012
  -6.9849999999999995E-002     6.7239856589404708E-012
  -6.9000000000000006E-002     1.1018835013107923E-011
  -6.8149999999999988E-002     1.2978138456128562E-011
  -6.7299999999999999E-002     1.0631959656594740E-011
  -6.6449999999999995E-002     2.8730338111259562E-012
  -6.5599999999999992E-002    -9.6277275181524236E-012
  -6.4750000000000002E-002    -2.3823117937584484E-011
  -6.3899999999999998E-002    -3.4402082853013274E-011
  -6.3049999999999995E-002    -3.4875447588254774E-011
  -6.2199999999999998E-002    -1.9608030394973189E-011
  -6.1350000000000002E-002     1.3616750826551905E-011
  -6.0499999999999998E-002     6.1275333956884738E-011
  -5.9650000000000002E-002     1.1298441717657740E-010
  -5.8799999999999998E-002     1.5241814240435517E-010
  -5.7950000000000002E-002     1.6061863617574434E-010
  -5.7099999999999998E-002     1.2130300453219499E-010
  -5.6249999999999994E-002     2.6949361074985972E-011
  -5.5400000000000005E-002    -1.1615736339859349E-010
  -5.4550000000000001E-002    -2.8584210425454658E-010
  -5.3699999999999998E-002    -4.4629224730541336E-010
  -5.2849999999999994E-002    -5.5487129276187162E-010
  -5.2000000000000005E-002    -5.7225878853849597E-010
  -5.1150000000000001E-002    -4.7337342356097358E-010
  -5.0299999999999997E-002    -2.5587550217464507E-010
  -4.9449999999999994E-002     5.6622443126325823E-011
  -4.8600000000000004E-002     4.1814084229170542E-010
  -4.7750000000000001E-002     7.7015411527191702E-010
  -4.6899999999999997E-002     1.0549793127200627E-009
  -4.6049999999999994E-002     1.2286701875566488E-009
  -4.5200000000000004E-002     1.2692849899474350E-009
  -4.4350000000000001E-002     1.1778313309405871E-009
  -4.3499999999999997E-002     9.7176182129084637E-010
  -4.2649999999999993E-002     6.7375366764901930E-010
  -4.1800000000000004E-002     3.0055094836735697E-010
  -4.0950000000000000E-002    -1.4300807546541959E-010
  -4.0099999999999997E-002    -6.6138963827778451E-010
  -3.9249999999999993E-002    -1.2571686820016592E-009
  -3.8400000000000004E-002    -1.9150791768260410E-009
  -3.7550000000000000E-002    -2.5879863116261335E-009
  -3.6699999999999997E-002    -3.1919369449099345E-009
  -3.5850000000000007E-002    -3.6150054839802889E-009
  -3.5000000000000003E-002    -3.7398356687378913E-009
  -3.4150000000000000E-002    -3.4741449132072012E-009
  -3.3299999999999996E-002    -2.7792406434327110E-009
  -3.2450000000000007E-002    -1.6856431669361257E-009
  -3.1600000000000003E-002    -2.8824540375647438E-010
  -3.0750000000000000E-002     1.2796569890645540E-009
  -2.9899999999999996E-002     2.8858394604573905E-009
  -2.9050000000000006E-002     4.4378954879289512E-009
  -2.8200000000000003E-002     5.9050764409179433E-009
  -2.7349999999999999E-002     7.3112379084978066E-009
  -2.6499999999999996E-002     8.6966278968163991E-009
  -2.5650000000000006E-002     1.0058512947641914E-008
  -2.4800000000000003E-002     1.1291183450071298E-008
  -2.3949999999999999E-002     1.2150169342032677E-008
  -2.3099999999999996E-002     1.2261158121442663E-008
  -2.2250000000000006E-002     1.1181298114163521E-008
  -2.1400000000000002E-002     8.5030182049709660E-009
  -2.0549999999999999E-002     3.9741147362464703E-009
  -1.9699999999999995E-002    -2.4012487821914245E-009
  -1.8850000000000006E-002    -1.0313458546295918E-008
  -1.8000000000000002E-002    -1.9168647955732356E-008
  -1.7149999999999999E-002    -2.8176254536952455E-008
  -1.6299999999999995E-002    -3.6476305359154294E-008
  -1.5450000000000005E-002    -4.3265311923500157E-008
  -1.4600000000000002E-002    -4.7879453969507397E-008
  -1.3749999999999998E-002    -4.9809595101087546E-008
  -1.2899999999999995E-002    -4.8649837646534419E-008
  -1.2050000000000005E-002    -4.4010901301992545E-008
  -1.1200000000000002E-002    -3.5449993506457772E-008
  -1.0349999999999998E-002    -2.2470942472841470E-008
  -9.5000000000000084E-003    -4.6290442814816352E-009
  -8.6500000000000049E-003     1.8261339664515875E-008
  -7.8000000000000014E-003     4.5860730421571755E-008
  -6.9499999999999978E-003     7.7057692858669309E-008
  -6.1000000000000082E-003     1.0982962311686796E-007
  -5.2500000000000047E-003     1.4128170846085478E-007
  -4.4000000000000011E-003     1.6789068176163563E-007
  -3.5499999999999976E-003     1.8592280973736498E-007
  -2.7000000000000079E-003     1.9194241964044518E-007
  -1.8500000000000044E-003     1.8329784268490048E-007
  -1.0000000000000009E-003     1.5847574296258684E-007
  -1.4999999999999736E-004     1.1725314712026227E-007
   6.9999999999999230E-004     6.0638418224091034E-008
   1.5499999999999958E-003    -9.3457400565941950E-009
   2.3999999999999994E-003    -8.9938723417801301E-008
   3.2500000000000029E-003    -1.7787227102325232E-007
   4.0999999999999925E-003    -2.6947897683991919E-007
   4.9499999999999961E-003    -3.6066330704746855E-007
   5.7999999999999996E-003    -4.4678698888970173E-007
   6.6499999999999893E-003    -5.2256720700878620E-007
   7.5000000000000067E-003    -5.8209885552877533E-007
   8.3499999999999963E-003    -6.1907910108418494E-007
   9.1999999999999860E-003    -6.2723797772580931E-007
   1.0050000000000003E-002    -6.0090172837556049E-007
   1.0899999999999993E-002    -5.3555365107784308E-007
   1.1750000000000010E-002    -4.2822284709781162E-007
   1.2600000000000000E-002    -2.7757431060344796E-007
   1.3449999999999990E-002    -8.3646675804687408E-008
   1.4300000000000007E-002     1.5271651138901754E-007
   1.5149999999999997E-002     4.3059929219718284E-007
   1.5999999999999986E-002     7.4973076145081982E-007
   1.6850000000000004E-002     1.1110202130921127E-006
   1.7699999999999994E-002     1.5168007696423963E-006
   1.8549999999999983E-002     1.9708131981723459E-006
   1.9400000000000001E-002     2.4780264211719890E-006
   2.0249999999999990E-002     3.0444911387891900E-006
   2.1100000000000008E-002     3.6774510920190163E-006
   2.1949999999999997E-002     4.3857993208996249E-006
   2.2799999999999987E-002     5.1809319122952888E-006
   2.3650000000000004E-002     6.0778965656453231E-006
   2.4499999999999994E-002     7.0966456062224872E-006
   2.5349999999999984E-002     8.2631701304710924E-006
   2.6200000000000001E-002     9.6103306296407137E-006
   2.7049999999999991E-002     1.1178335628732940E-005
   2.7900000000000008E-002     1.3014899841934351E-005
   2.8749999999999998E-002     1.5175287447512746E-005
   2.9599999999999987E-002     1.7722410523382348E-005
   3.0450000000000005E-002     2.0727198164921562E-005
   3.1299999999999994E-002     2.4269368402788623E-005
   3.2149999999999984E-002     2.8438593747022087E-005
   3.3000000000000002E-002     3.3335881409210089E-005
   3.3849999999999991E-002     3.9075025143809067E-005
   3.4700000000000009E-002     4.5783949259914785E-005
   3.5549999999999998E-002     5.3605833846018112E-005
   3.6399999999999988E-002     6.2699953257642883E-005
   3.7250000000000005E-002     7.3242547903031296E-005
   3.8099999999999995E-002     8.5427984284141314E-005
   3.8949999999999985E-002     9.9470021741243484E-005
   3.9800000000000002E-002     1.1560396809610932E-004
   4.0649999999999992E-002     1.3408942092002816E-004
   4.1500000000000009E-002     1.5521353973442097E-004
   4.2349999999999999E-002     1.7929456611161658E-004
   4.3199999999999988E-002     2.0668509674636533E-004
   4.4050000000000006E-002     2.3777550021462633E-004
   4.4899999999999995E-002     2.7299640583471914E-004
   4.5749999999999985E-002     3.1282094178045327E-004
   4.6600000000000003E-002     3.5776592396112881E-004
   4.7449999999999992E-002     4.0839251506233723E-004
   4.8299999999999982E-002     4.6530668347703497E-004
   4.9149999999999999E-002     5.2915899469984469E-004
   4.9999999999999989E-002     6.0064448436104216E-004
   5.0850000000000006E-002     6.8050140394317461E-004
   5.1699999999999996E-002     7.6950948931035290E-004
   5.2549999999999986E-002     8.6848743109494417E-004
   5.3400000000000003E-002     9.7828896879742716E-004
   5.4249999999999993E-002     1.0998001328946395E-003
   5.5099999999999982E-002     1.2339331387657888E-003
   5.5950000000000000E-002     1.3816206164644657E-003
   5.6799999999999989E-002     1.5438095250650389E-003
   5.7650000000000007E-002     1.7214534995410177E-003
   5.8499999999999996E-002     1.9155052529558352E-003
   5.9349999999999986E-002     2.1269063737646321E-003
   6.0200000000000004E-002     2.3565746636062582E-003
   6.1049999999999993E-002     2.6053923094835354E-003
   6.1899999999999983E-002     2.8741890311334748E-003
   6.2750000000000000E-002     3.1637240136614788E-003
   6.3599999999999990E-002     3.4746651527283907E-003
   6.4450000000000007E-002     3.8075645384132734E-003
   6.5299999999999997E-002     4.1628383514711216E-003
   6.6149999999999987E-002     4.5407389069184291E-003
   6.7000000000000004E-002     4.9413251617432133E-003
   6.7849999999999994E-002     5.3644382400492800E-003
   6.8699999999999983E-002     5.8096712494471320E-003
   6.9550000000000001E-002     6.2763371284654708E-003
   7.0399999999999990E-002     6.7634349637299383E-003
   7.1249999999999980E-002     7.2696221230955909E-003
   7.2099999999999997E-002     7.7931815236931164E-003
   7.2949999999999987E-002     8.3319943581247197E-003
   7.3800000000000004E-002     8.8835067250013829E-003
   7.4649999999999994E-002     9.4447118923290611E-003
   7.5499999999999984E-002     1.0012122093125046E-002
   7.6350000000000001E-002     1.0581753976593644E-002
   7.7199999999999991E-002     1.1149106473367521E-002
   7.8049999999999981E-002     1.1709162116880500E-002
   7.8899999999999998E-002     1.2256378180320984E-002
   7.9749999999999988E-002     1.2784684549763030E-002
   8.0600000000000005E-002     1.3287492837275811E-002
   8.1449999999999995E-002     1.3757712422089943E-002
   8.2299999999999984E-002     1.4187769653866188E-002
   8.3150000000000002E-002     1.4569642298292182E-002
   8.3999999999999991E-002     1.4894892350445142E-002
   8.4849999999999981E-002     1.5154714860601210E-002
   8.5699999999999998E-002     1.5340004882821241E-002
   8.6549999999999988E-002     1.5441418683826537E-002
   8.7400000000000005E-002     1.5449465588998013E-002
   8.8249999999999995E-002     1.5354594964049095E-002
   8.9099999999999985E-002     1.5147295920530539E-002
   8.9950000000000002E-002     1.4818202384190696E-002
   9.0799999999999992E-002     1.4358210304985372E-002
   9.1649999999999981E-002     1.3758621723499282E-002
   9.2499999999999999E-002     1.3011276363104609E-002
   9.3349999999999989E-002     1.2108667246100581E-002
   9.4200000000000006E-002     1.1044110843820867E-002
   9.5049999999999996E-002     9.8118991539610911E-003
   9.5899999999999985E-002     8.4074429482548889E-003
   9.6750000000000003E-002     6.8274112186857165E-003
   9.7599999999999992E-002     5.0698943159396843E-003
   9.8449999999999982E-002     3.1345238318268849E-003
   9.9299999999999999E-002     1.0225937198589975E-003
  0.10014999999999999         -1.2627964530585593E-003
  0.10099999999999998         -3.7166368183013834E-003
  0.10185000000000000         -6.3319291318056931E-003
  0.10269999999999999         -9.0996035567115444E-003
  0.10355000000000000         -1.2008474179571280E-002
  0.10439999999999999         -1.5045185117487486E-002
  0.10524999999999998         -1.8194217421454630E-002
  0.10610000000000000         -2.1437931583566671E-002
  0.10694999999999999         -2.4756578822493290E-002
  0.10779999999999998         -2.8128384502222527E-002
  0.10865000000000000         -3.1529715600774347E-002
  0.10949999999999999         -3.4935181164444808E-002
  0.11035000000000000         -3.8317788791079548E-002
  0.11119999999999999         -4.1649141114433866E-002
  0.11204999999999998         -4.4899674199112692E-002
  0.11290000000000000         -4.8038896651752303E-002
  0.11374999999999999         -5.1035669203049930E-002
  0.11459999999999998         -5.3858490873132145E-002
  0.11545000000000000         -5.6475854360422566E-002
  0.11629999999999999         -5.8856593007347510E-002
  0.11715000000000000         -6.0970181186792198E-002
  0.11799999999999999         -6.2787199855428841E-002
  0.11884999999999998         -6.4279597252679108E-002
  0.11970000000000000         -6.5421084505943430E-002
  0.12054999999999999         -6.6187540114702403E-002
  0.12139999999999998         -6.6557313500600013E-002
  0.12225000000000000         -6.6511589921760678E-002
  0.12309999999999999         -6.6034671020608046E-002
  0.12395000000000000         -6.5114283997332351E-002
  0.12479999999999999         -6.3741841274949626E-002
  0.12564999999999998         -6.1912620730451041E-002
  0.12650000000000000         -5.9626019840528018E-002
  0.12734999999999999         -5.6885635553026455E-002
  0.12819999999999998         -5.3699376978919640E-002
  0.12905000000000000         -5.0079548580070278E-002
  0.12989999999999999         -4.6042771365287581E-002
  0.13074999999999998         -4.1609963751549843E-002
  0.13159999999999999         -3.6806216621102179E-002
  0.13245000000000001         -3.1660636209009795E-002
  0.13329999999999997         -2.6206098187859579E-002
  0.13414999999999999         -2.0479009058933451E-002
  0.13500000000000001         -1.4518930947963348E-002
  0.13584999999999997         -8.3682684802831031E-003
  0.13669999999999999         -2.0718904642321647E-003
  0.13755000000000001          4.3233327500057355E-003
  0.13839999999999997          1.0768992056091442E-002
  0.13924999999999998          1.7215633276956788E-002
  0.14010000000000000          2.3613273456528937E-002
  0.14094999999999996          2.9911884313718308E-002
  0.14179999999999998          3.6061931388583768E-002
  0.14265000000000000          4.2014908302862954E-002
  0.14350000000000002          4.7723869312185398E-002
  0.14434999999999998          5.3143928890598567E-002
  0.14520000000000000          5.8232743494951257E-002
  0.14605000000000001          6.2950963896690179E-002
  0.14689999999999998          6.7262607875863134E-002
  0.14774999999999999          7.1135465967641143E-002
  0.14860000000000001          7.4541431611299447E-002
  0.14944999999999997          7.7456709475891852E-002
  0.15029999999999999          7.9862110032303077E-002
  0.15115000000000001          8.1743195113738565E-002
  0.15199999999999997          8.3090408818418685E-002
  0.15284999999999999          8.3899118045804313E-002
  0.15370000000000000          8.4169598780311022E-002
  0.15454999999999997          8.3907016876334534E-002
  0.15539999999999998          8.3121303302034419E-002
  0.15625000000000000          8.1826947896638275E-002
  0.15709999999999996          8.0042788430031236E-002
  0.15794999999999998          7.7791709289201316E-002
  0.15880000000000000          7.5100339155632578E-002
  0.15965000000000001          7.1998726754911854E-002
  0.16049999999999998          6.8519935178407043E-002
  0.16134999999999999          6.4699656329204075E-002
  0.16220000000000001          6.0575742685906722E-002
  0.16304999999999997          5.6187846381452834E-002
  0.16389999999999999          5.1576910834679086E-002
  0.16475000000000001          4.6784679941844577E-002
  0.16559999999999997          4.1853256394396798E-002
  0.16644999999999999          3.6824667072768533E-002
  0.16730000000000000          3.1740448063511048E-002
  0.16814999999999997          2.6641194572780358E-002
  0.16899999999999998          2.1566161044177103E-002
  0.16985000000000000          1.6552940901381187E-002
  0.17069999999999996          1.1637160487696656E-002
  0.17154999999999998          6.8521602247526179E-003
  0.17240000000000000          2.2287569059443700E-003
  0.17325000000000002         -2.2049632893377446E-003
  0.17409999999999998         -6.4238219614986486E-003
  0.17494999999999999         -1.0405680313231004E-002
  0.17580000000000001         -1.4131554379161946E-002
  0.17664999999999997         -1.7585645360978602E-002
  0.17749999999999999         -2.0755352297455790E-002
  0.17835000000000001         -2.3631226412618792E-002
  0.17919999999999997         -2.6206921843632266E-002
  0.18004999999999999         -2.8479130148858348E-002
  0.18090000000000001         -3.0447418665161437E-002
  0.18174999999999997         -3.2114063719441859E-002
  0.18259999999999998         -3.3483870438102650E-002
  0.18345000000000000         -3.4564030329437272E-002
  0.18429999999999996         -3.5363870100266794E-002
  0.18514999999999998         -3.5894642783481388E-002
  0.18600000000000000         -3.6169303946184311E-002
  0.18684999999999996         -3.6202280300158762E-002
  0.18769999999999998         -3.6009239465160672E-002
  0.18855000000000000         -3.5606791051075525E-002
  0.18940000000000001         -3.5012305606054540E-002
  0.19024999999999997         -3.4243665765499275E-002
  0.19109999999999999         -3.3319033839151579E-002
  0.19195000000000001         -3.2256641666428651E-002
  0.19279999999999997         -3.1074609051560721E-002
  0.19364999999999999         -2.9790779289080176E-002
  0.19450000000000001         -2.8422526529560656E-002
  0.19534999999999997         -2.6986653098088606E-002
  0.19619999999999999         -2.5499268413247660E-002
  0.19705000000000000         -2.3975665461824024E-002
  0.19789999999999996         -2.2430251216100306E-002
  0.19874999999999998         -2.0876448703113597E-002
  0.19960000000000000         -1.9326647233559747E-002
  0.20044999999999996         -1.7792144597269143E-002
  0.20129999999999998         -1.6283121376113794E-002
  0.20215000000000000         -1.4808631758249848E-002
  0.20300000000000001         -1.3376604499913590E-002
  0.20384999999999998         -1.1993869543783196E-002
  0.20469999999999999         -1.0666198612132163E-002
  0.20555000000000001         -9.3983362488727074E-003
  0.20639999999999997         -8.1940574416891863E-003
  0.20724999999999999         -7.0562189701497309E-003
  0.20810000000000001         -5.9868195235584874E-003
  0.20894999999999997         -4.9870680338185572E-003
  0.20979999999999999         -4.0574352613961633E-003
  0.21065000000000000         -3.1977191014886347E-003
  0.21149999999999997         -2.4071156503106574E-003
  0.21234999999999998         -1.6842808558690597E-003
  0.21320000000000000         -1.0274103831126914E-003
  0.21404999999999996         -4.3431161907295381E-004
  0.21489999999999998          9.7533795052617955E-005
  0.21575000000000000          5.7090022405846552E-004
  0.21659999999999996          9.8875079463229751E-004
  0.21744999999999998          1.3541925793570883E-003
  0.21829999999999999          1.6704249701068809E-003
  0.21915000000000001          1.9406956536446814E-003
  0.21999999999999997          2.1682858795739439E-003
  0.22084999999999999          2.3564721238370110E-003
  0.22170000000000001          2.5085006904012816E-003
  0.22254999999999997          2.6275718914930950E-003
  0.22339999999999999          2.7168043661344489E-003
  0.22425000000000000          2.7792071403714902E-003
  0.22509999999999997          2.8176571090199011E-003
  0.22594999999999998          2.8348747028468595E-003
  0.22680000000000000          2.8333985755161950E-003
  0.22764999999999996          2.8155784595591659E-003
  0.22849999999999998          2.7835780808852829E-003
  0.22935000000000000          2.7393810008540520E-003
  0.23019999999999996          2.6848099997973714E-003
  0.23104999999999998          2.6215360923058663E-003
  0.23190000000000000          2.5510887365268863E-003
  0.23275000000000001          2.4748636173418819E-003
  0.23359999999999997          2.3941284009505086E-003
  0.23444999999999999          2.3100229575331393E-003
  0.23530000000000001          2.2235564594644350E-003
  0.23614999999999997          2.1356114937131948E-003
  0.23699999999999999          2.0469429892659174E-003
  0.23785000000000001          1.9581766675435043E-003
  0.23869999999999997          1.8698256646208162E-003
  0.23954999999999999          1.7823055549073853E-003
  0.24040000000000000          1.6959459009347594E-003
  0.24124999999999996          1.6110141508152581E-003
  0.24209999999999998          1.5277349907696701E-003
  0.24295000000000000          1.4462986560590317E-003
  0.24379999999999996          1.3668656559615334E-003
  0.24464999999999998          1.2895698861399372E-003
  0.24550000000000000          1.2145136379006498E-003
  0.24634999999999996          1.1417581868594447E-003
  0.24719999999999998          1.0713204147343306E-003
  0.24804999999999999          1.0031708685739444E-003
  0.24890000000000001          9.3723743065215364E-004
  0.24974999999999997          8.7341782481742056E-004
  0.25059999999999999          8.1159324717750231E-004
  0.25145000000000001          7.5164327695316437E-004
  0.25229999999999997          6.9345671400519824E-004
  0.25314999999999999          6.3693667240306514E-004
  0.25400000000000000          5.8199774990005612E-004
  0.25484999999999997          5.2855483855487580E-004
  0.25569999999999998          4.7650785857348014E-004
  0.25655000000000000          4.2572709123787027E-004
  0.25739999999999996          3.7604500255960621E-004
  0.25824999999999998          3.2724971057923548E-004
  0.25910000000000000          2.7909025956170943E-004
  0.25994999999999996          2.3128675669688669E-004
  0.26079999999999998          1.8354235198748999E-004
  0.26164999999999999          1.3555480404486308E-004
  0.26249999999999996          8.7020290326053797E-005
  0.26334999999999997          3.7631688467135955E-005
  0.26419999999999999         -1.2927895568554357E-005
  0.26505000000000001         -6.4995530252898620E-005
  0.26589999999999997         -1.1894015612762272E-004
  0.26674999999999999         -1.7516769229819913E-004
  0.26760000000000000         -2.3412008089645144E-004
  0.26844999999999997         -2.9626808757145397E-004
  0.26929999999999998         -3.6209677254555933E-004
  0.27015000000000000         -4.3209044595234953E-004
  0.27099999999999996         -5.0671905674285205E-004
  0.27184999999999998         -5.8642596599691745E-004
  0.27270000000000000         -6.7161879398180665E-004
  0.27354999999999996         -7.6266845493060901E-004
  0.27439999999999998         -8.5990830235713081E-004
  0.27524999999999999         -9.6363075588899575E-004
  0.27609999999999996         -1.0740869126186041E-003
  0.27694999999999997         -1.1914765670154406E-003
  0.27779999999999999         -1.3159390380661040E-003
  0.27865000000000001         -1.4475380420763679E-003
  0.27949999999999997         -1.5862435479016461E-003
  0.28034999999999999         -1.7319181773845635E-003
  0.28120000000000001         -1.8843007495399570E-003
  0.28204999999999997         -2.0429938420526111E-003
  0.28289999999999998         -2.2074567226922836E-003
  0.28375000000000000         -2.3769974566333380E-003
  0.28459999999999996         -2.5507685849602978E-003
  0.28544999999999998         -2.7277663545304184E-003
  0.28630000000000000         -2.9068322623422176E-003
  0.28714999999999996         -3.0866525461987686E-003
  0.28799999999999998         -3.2657490941001423E-003
  0.28885000000000000         -3.4424805930771633E-003
  0.28969999999999996         -3.6150429520214931E-003
  0.29054999999999997         -3.7814626601016012E-003
  0.29139999999999999         -3.9395924479393206E-003
  0.29224999999999995         -4.0871130023689192E-003
  0.29309999999999997         -4.2215459771064072E-003
  0.29394999999999999         -4.3402605891794737E-003
  0.29480000000000001         -4.4405052266869487E-003
  0.29564999999999997         -4.5194259175102003E-003
  0.29649999999999999         -4.5740872527411857E-003
  0.29735000000000000         -4.6015070983124566E-003
  0.29819999999999997         -4.5986796705563436E-003
  0.29904999999999998         -4.5626075029701124E-003
  0.29990000000000000         -4.4903172978872086E-003
  0.30074999999999996         -4.3788911303657687E-003
  0.30159999999999998         -4.2255128948488520E-003
  0.30245000000000000         -4.0275004322846359E-003
  0.30329999999999996         -3.7823496986061837E-003
  0.30414999999999998         -3.4877816591038684E-003
  0.30499999999999999         -3.1417940294570135E-003
  0.30584999999999996         -2.7427236817891948E-003
  0.30669999999999997         -2.2892877172490758E-003
  0.30754999999999999         -1.7806333301156687E-003
  0.30840000000000001         -1.2163843432403650E-003
  0.30924999999999997         -5.9666969674813464E-004
  0.31009999999999999          7.7850083861957575E-005
  0.31095000000000000          8.0595065221569448E-004
  0.31179999999999997          1.5858040883792971E-003
  0.31264999999999998          2.4149620436366270E-003
  0.31350000000000000          3.2903244048964639E-003
  0.31434999999999996          4.2081108607840700E-003
  0.31519999999999998          5.1638549534951160E-003
  0.31605000000000000          6.1523861725268593E-003
  0.31689999999999996          7.1678360505095058E-003
  0.31774999999999998          8.2036666954006191E-003
  0.31859999999999999          9.2527192660377851E-003
  0.31944999999999996          1.0307258534429608E-002
  0.32029999999999997          1.1359026406703086E-002
  0.32114999999999999          1.2399309355092559E-002
  0.32199999999999995          1.3418992673413203E-002
  0.32284999999999997          1.4408645744789325E-002
  0.32369999999999999          1.5358582341025226E-002
  0.32455000000000001          1.6258955582782203E-002
  0.32539999999999997          1.7099855041386797E-002
  0.32624999999999998          1.7871398597243252E-002
  0.32710000000000000          1.8563839642623692E-002
  0.32794999999999996          1.9167705987334548E-002
  0.32879999999999998          1.9673918055306435E-002
  0.32965000000000000          2.0073900905456177E-002
  0.33049999999999996          2.0359739398885520E-002
  0.33134999999999998          2.0524275254795429E-002
  0.33220000000000000          2.0561219825561680E-002
  0.33304999999999996          2.0465245714766583E-002
  0.33389999999999997          2.0232078795610141E-002
  0.33474999999999999          1.9858560930310711E-002
  0.33559999999999995          1.9342722475425018E-002
  0.33644999999999997          1.8683844648028462E-002
  0.33729999999999999          1.7882491577535645E-002
  0.33815000000000001          1.6940563960526383E-002
  0.33899999999999997          1.5861349310303342E-002
  0.33984999999999999          1.4649523791162975E-002
  0.34070000000000000          1.3311155818592581E-002
  0.34154999999999996          1.1853665859845016E-002
  0.34239999999999998          1.0285780180506748E-002