 -0.12000000000000000          0.0000000000000000
 -0.11914999999999999          0.0000000000000000
 -0.11830000000000000          2.3657217813568629E-008
 -0.11745000000000000          7.1365173015488272E-008
 -0.11660000000000000          7.6451251787960907E-008
 -0.11574999999999999         -7.0147191750619638E-008
 -0.11490000000000000         -4.2116002546117252E-007
 -0.11405000000000000         -8.8060622915712580E-007
 -0.11320000000000000         -1.2303754481771567E-006
 -0.11234999999999999         -1.3154865048161475E-006
 -0.11150000000000000         -1.2796408579513333E-006
 -0.11065000000000000         -1.6286684847203005E-006
 -0.10979999999999999         -2.9406109433178447E-006
 -0.10894999999999999         -5.2722972405715834E-006
 -0.10810000000000000         -7.6208406707601412E-006
 -0.10725000000000000         -7.9577428228628671E-006
 -0.10639999999999999         -4.1568081618751146E-006
 -0.10554999999999999          4.4324699008647207E-006
 -0.10470000000000000          1.5689382841587315E-005
 -0.10385000000000000          2.4931732883951195E-005
 -0.10299999999999999          2.7365527694994634E-005
 -0.10214999999999999          2.2172626023039089E-005
 -0.10130000000000000          1.5997802425649025E-005
 -0.10045000000000000          2.2682843559861012E-005
  -9.9599999999999994E-002     5.6938128327012309E-005
  -9.8750000000000004E-002     1.2259483401484808E-004
  -9.7900000000000001E-002     2.0027080217170212E-004
  -9.7049999999999997E-002     2.4260236797822500E-004
  -9.6199999999999994E-002     1.8506099390089891E-004
  -9.5349999999999990E-002    -2.4913652545226374E-005
  -9.4500000000000001E-002    -3.8752915518274107E-004
  -9.3649999999999997E-002    -8.1678688234149599E-004
  -9.2799999999999994E-002    -1.1367273424091231E-003
  -9.1950000000000004E-002    -1.1265351791228330E-003
  -9.1100000000000000E-002    -6.1555449113001961E-004
  -9.0249999999999997E-002     3.9761995061249290E-004
  -8.9399999999999993E-002     1.6535173445156072E-003
  -8.8549999999999990E-002     2.6296228144315707E-003
  -8.7700000000000000E-002     2.6727700867513805E-003
  -8.6849999999999997E-002     1.2638509430423109E-003
  -8.5999999999999993E-002    -1.6542593694848758E-003
  -8.5150000000000003E-002    -5.4162778143999838E-003
  -8.4300000000000000E-002    -8.5967930262348148E-003
  -8.3449999999999996E-002    -9.3118229417475350E-003
  -8.2600000000000007E-002    -5.8682478792999818E-003
  -8.1749999999999989E-002     2.3839332925765580E-003
  -8.0900000000000000E-002     1.4288456713494234E-002
  -8.0049999999999996E-002     2.6573442369974946E-002
  -7.9199999999999993E-002     3.4302465930069193E-002
  -7.8350000000000003E-002     3.2185051086966884E-002
  -7.7499999999999999E-002     1.6528102520328727E-002
  -7.6649999999999996E-002    -1.2720406284141304E-002
  -7.5800000000000006E-002    -5.0595989995022433E-002
  -7.4949999999999989E-002    -8.7145392264451130E-002
  -7.4099999999999999E-002   -0.10927433052223327
  -7.3249999999999996E-002   -0.10426758923174533
  -7.2399999999999992E-002    -6.4179217724459919E-002
  -7.1550000000000002E-002     1.0226341597410510E-002
  -7.0699999999999999E-002    0.10745368631258768
  -6.9849999999999995E-002    0.20629663583530836
  -6.9000000000000006E-002    0.28019037615979780
  -6.8149999999999988E-002    0.30408748715544948
  -6.7299999999999999E-002    0.26203313527121708
  -6.6449999999999995E-002    0.15306499838332194
  -6.5599999999999992E-002    -6.7356105519415198E-003
  -6.4750000000000002E-002   -0.18721789334385688
  -6.3899999999999998E-002   -0.35177004982014315
  -6.3049999999999995E-002   -0.46752135424484842
  -6.2199999999999998E-002   -0.51495030588633084
  -6.1350000000000002E-002   -0.49354526657241393
  -6.0499999999999998E-002   -0.42117945275432978
  -5.9650000000000002E-002   -0.32686173095911963
  -5.8799999999999998E-002   -0.23887431172051532
  -5.7950000000000002E-002   -0.17224963186931919
  -5.7099999999999998E-002   -0.12026181124895119
  -5.6249999999999994E-002    -5.3748010247281930E-002
  -5.5400000000000005E-002     7.0289102277454107E-002
  -5.4550000000000001E-002    0.29253065905598119
  -5.3699999999999998E-002    0.63231459718189853
  -5.2849999999999994E-002     1.0720580867977323
  -5.2000000000000005E-002     1.5510839087406936
  -5.1150000000000001E-002     1.9722470798740117
  -5.0299999999999997E-002     2.2208977965329302
  -4.9449999999999994E-002     2.1914570287414659
  -4.8600000000000004E-002     1.8140263377834835
  -4.7750000000000001E-002     1.0727061458535421
  -4.6899999999999997E-002     9.4975757562618668E-003
  -4.6049999999999994E-002    -1.2880852264671923
  -4.5200000000000004E-002    -2.7125886170716473
  -4.4350000000000001E-002    -4.1676263608408526
  -4.3499999999999997E-002    -5.5950538902971285
  -4.2649999999999993E-002    -6.9897463720579189
  -4.1800000000000004E-002    -8.3982173932667479
  -4.0950000000000000E-002    -9.9014503308289150
  -4.0099999999999997E-002    -11.589301546982206
  -3.9249999999999993E-002    -13.535522491191490
  -3.8400000000000004E-002    -15.782650475679830
  -3.7550000000000000E-002    -18.343058706357382
  -3.6699999999999997E-002    -21.215676962283304
  -3.5850000000000007E-002    -24.413529610417299
  -3.5000000000000003E-002    -27.991687071827670
  -3.4150000000000000E-002    -32.066647959353517
  -3.3299999999999996E-002    -36.819311419429397
  -3.2450000000000007E-002    -42.480793009860491
  -3.1600000000000003E-002    -49.305552684532472
  -3.0750000000000000E-002    -57.542021240936691
  -2.9899999999999996E-002    -67.410691353349478
  -2.9050000000000006E-002    -79.098211468809978
  -2.8200000000000003E-002    -92.772054120075836
  -2.7349999999999999E-002    -108.60806568996236
  -2.6499999999999996E-002    -126.82723785666053
  -2.5650000000000006E-002    -147.72238657374032
  -2.4800000000000003E-002    -171.67811849539930
  -2.3949999999999999E-002    -199.16401049112244
  -2.3099999999999996E-002    -230.72094376440486
  -2.2250000000000006E-002    -266.93386429438908
  -2.1400000000000002E-002    -308.41498331503851
  -2.0549999999999999E-002    -355.79132577815790
  -1.9699999999999995E-002    -409.71891987150229
  -1.8850000000000006E-002    -470.90677121282692
  -1.8000000000000002E-002    -540.15193962413946
  -1.7149999999999999E-002    -618.36327646447762
  -1.6299999999999995E-002    -706.57284285704452
  -1.5450000000000005E-002    -805.94157773222560
  -1.4600000000000002E-002    -917.72343091744824
  -1.3749999999999998E-002    -1043.2435128975148
  -1.2899999999999995E-002    -1183.8718594893326
  -1.2050000000000005E-002    -1341.0104862574017
  -1.1200000000000002E-002    -1516.1007125636693
  -1.0349999999999998E-002    -1710.6481569649427
  -9.5000000000000084E-003    -1926.2469000577025
  -8.6500000000000049E-003    -2164.6106799731256
  -7.8000000000000014E-003    -2427.5931988724883
  -6.9499999999999978E-003    -2717.1448562317423
  -6.1000000000000082E-003    -3035.3067168116986
  -5.2500000000000047E-003    -3384.1389868821811
  -4.4000000000000011E-003    -3765.6946571773242
  -3.5499999999999976E-003    -4181.9525224344843
  -2.7000000000000079E-003    -4634.7957823616989
  -1.8500000000000044E-003    -5126.0513713448972
  -1.0000000000000009E-003    -5657.4322095767038
  -1.4999999999999736E-004    -6230.5600412477897
   6.9999999999999230E-004    -6846.9009380769212
   1.5499999999999958E-003    -7507.8321117996256
   2.3999999999999994E-003    -8214.4025610575118
   3.2500000000000029E-003    -8967.3818361048507
   4.0999999999999925E-003    -9767.1180037290906
   4.9499999999999961E-003    -10613.473498157498
   5.7999999999999996E-003    -11505.803079895129
   6.6499999999999893E-003    -12442.839139766213
   7.5000000000000067E-003    -13422.873746340931
   8.3499999999999963E-003    -14443.479411963588
   9.1999999999999860E-003    -15501.704704207867
   1.0050000000000003E-002    -16593.781733974287
   1.0899999999999993E-002    -17715.383462344311
   1.1750000000000010E-002    -18861.099112589887
   1.2600000000000000E-002    -20024.411192456562
   1.3449999999999990E-002    -21197.811879307046
   1.4300000000000007E-002    -22372.491607271619
   1.5149999999999997E-002    -23538.400878366996
   1.5999999999999986E-002    -24684.337907820060
   1.6850000000000004E-002    -25797.996970183351
   1.7699999999999994E-002    -26866.330274621323
   1.8549999999999983E-002    -27874.909045444383
   1.9400000000000001E-002    -28808.606398476604
   2.0249999999999990E-002    -29651.640788286943
   2.1100000000000008E-002    -30386.913450219243
   2.1949999999999997E-002    -30996.913959169491
   2.2799999999999987E-002    -31462.505776013095
   2.3650000000000004E-002    -31764.616367096129
   2.4499999999999994E-002    -31882.704521693111
   2.5349999999999984E-002    -31796.241769662927
   2.6200000000000001E-002    -31484.569579460378
   2.7049999999999991E-002    -30927.015798759712
   2.7900000000000008E-002    -30104.083084408172
   2.8749999999999998E-002    -28996.357469339666
   2.9599999999999987E-002    -27585.954330016630
   3.0450000000000005E-002    -25855.577130184531
   3.1299999999999994E-002    -23789.671227671068
   3.2149999999999984E-002    -21374.646399985588
   3.3000000000000002E-002    -18598.957163583949
   3.3849999999999991E-002    -15452.736529449830
   3.4700000000000009E-002    -11929.300502005308
   3.5549999999999998E-002    -8025.0336027793001
   3.6399999999999988E-002    -3739.8586059520676
   3.7250000000000005E-002     922.41469981770388
   3.8099999999999995E-002     5954.5106149560979
   3.8949999999999985E-002     11344.414094437223
   3.9800000000000002E-002     17076.151785815990
   4.0649999999999992E-002     23127.885884788953
   4.1500000000000009E-002     29475.452166358424
   4.2349999999999999E-002     36088.387824761237
   4.3199999999999988E-002     42931.864753401802
   4.4050000000000006E-002     49966.644047996713
   4.4899999999999995E-002     57149.017870554992
   4.5749999999999985E-002     64430.600246431262
   4.6600000000000003E-002     71758.230683701870
   4.7449999999999992E-002     79075.936499919902
   4.8299999999999982E-002     86323.213888039420
   4.9149999999999999E-002     93436.473359292053
   4.9999999999999989E-002     100350.34779207902
   5.0850000000000006E-002     106997.35092594469
   5.1699999999999996E-002     113308.91706057804
   5.2549999999999986E-002     119216.41365514514
   5.3400000000000003E-002     124650.56073703634
   5.4249999999999993E-002     129543.53872778613
   5.5099999999999982E-002     133828.35489869610
   5.5950000000000000E-002     137439.74476946500
   5.6799999999999989E-002     140317.18156861511
   5.7650000000000007E-002     142402.35423314010
   5.8499999999999996E-002     143642.83078877101
   5.9349999999999986E-002     143991.86120285856
   6.0200000000000004E-002     143410.33632498651
   6.1049999999999993E-002     141865.85105505810
   6.1899999999999983E-002     139333.90357025748
   6.2750000000000000E-002     135797.68364830496
   6.3599999999999990E-002     131249.46979454983
   6.4450000000000007E-002     125690.98199363830
   6.5299999999999997E-002     119132.43208057505
   6.6149999999999987E-002     111594.79070242087
   6.7000000000000004E-002     103108.10504587553
   6.7849999999999994E-002     93712.503666715973
   6.8699999999999983E-002     83458.596739843633
   6.9550000000000001E-002     72405.560793136247
   7.0399999999999990E-002     60622.588785465698
   7.1249999999999980E-002     48186.869464862597
   7.2099999999999997E-002     35182.949791313004
   7.2949999999999987E-002     21702.146567713306
   7.3800000000000004E-002     7842.5236291449564
   7.4649999999999994E-002    -6294.1145504794458
   7.5499999999999984E-002    -20600.259809054554
   7.6350000000000001E-002    -34965.806520384715
   7.7199999999999991E-002    -49278.596109054066
   7.8049999999999981E-002    -63424.431716041305
   7.8899999999999998E-002    -77290.669607874588
   7.9749999999999988E-002    -90764.786413340102
   8.0600000000000005E-002    -103738.07619262369
   8.1449999999999995E-002    -116106.58624881555
   8.2299999999999984E-002    -127771.07045185498
   8.3150000000000002E-002    -138638.78312452449
   8.3999999999999991E-002    -148623.99663328470
   8.4849999999999981E-002    -157648.32177696063
   8.5699999999999998E-002    -165643.85121423850
   8.6549999999999988E-002    -172550.64190368625
   8.7400000000000005E-002    -178319.39008125002
   8.8249999999999995E-002    -182910.74704768389
   8.9099999999999985E-002    -186299.21841220191
   8.9950000000000002E-002    -188466.83811412982
   9.0799999999999992E-002    -189409.78589321597
   9.1649999999999981E-002    -189135.31006808177
   9.2499999999999999E-002    -187661.56508304743
   9.3349999999999989E-002    -185017.85325557427
   9.4200000000000006E-002    -181241.20001476520
   9.5049999999999996E-002    -176382.38010572380
   9.5899999999999985E-002    -170497.80568811021
   9.6750000000000003E-002    -163654.21195813789
   9.7599999999999992E-002    -155923.99320975269
   9.8449999999999982E-002    -147388.03900681893
   9.9299999999999999E-002    -138130.74173690690
  0.10014999999999999         -128242.41119846121
  0.10099999999999998         -117816.33548886464
  0.10185000000000000         -106947.32073786372
  0.10269999999999999         -95733.206334534596
  0.10355000000000000         -84270.437440119917
  0.10439999999999999         -72655.601699161241
  0.10524999999999998         -60981.961340201138
  0.10610000000000000         -49342.120244110614
  0.10694999999999999         -37824.006625280512
  0.10779999999999998         -26512.025048036085
  0.10865000000000000         -15484.138896264161
  0.10949999999999999         -4814.3671645375834
  0.11035000000000000          5431.1148004896731
  0.11119999999999999          15191.662453026311
  0.11204999999999998          24414.550855762256
  0.11290000000000000          33054.970022736634
  0.11374999999999999          41074.342196458820
  0.11459999999999998          48441.989237106180
  0.11545000000000000          55134.342748447678
  0.11629999999999999          61134.765128551997
  0.11715000000000000          66434.261031595626
  0.11799999999999999          71030.191597984522
  0.11884999999999998          74926.373517875429
  0.11970000000000000          78133.185276162345
  0.12054999999999999          80665.969340633383
  0.12139999999999998          82546.006969857277
  0.12225000000000000          83798.847810421168
  0.12309999999999999          84454.085366512387
  0.12395000000000000          84545.071017362119
  0.12479999999999999          84107.642740457566
  0.12564999999999998          83180.053895373683
  0.12650000000000000          81802.542564489922
  0.12734999999999999          80016.238046429615
  0.12819999999999998          77863.426991564091
  0.12905000000000000          75386.447009169788
  0.12989999999999999          72627.669269932929
  0.13074999999999998          69628.627570266312
  0.13159999999999999          66430.345831028870
  0.13245000000000001          63072.031969437587
  0.13329999999999997          59591.742736561973
  0.13414999999999999          56025.668976574227
  0.13500000000000001          52407.475219961889
  0.13584999999999997          48768.658670028664
  0.13669999999999999          45138.199317046994
  0.13755000000000001          41542.512470572074
  0.13839999999999997          38005.348863062565
  0.13924999999999998          34548.057030223921
  0.14010000000000000          31189.031990182120
  0.14094999999999996          27944.542212980592
  0.14179999999999998          24828.223690337647
  0.14265000000000000          21851.595476960887
  0.14350000000000002          19023.713916761531
  0.14434999999999998          16351.467085418730
  0.14520000000000000          13839.497673321817
  0.14605000000000001          11490.633862851755
  0.14689999999999998          9305.7776088549217
  0.14774999999999999          7284.3812006426024
  0.14860000000000001          5424.7131096592138
  0.14944999999999997          3723.7312624250858
  0.15029999999999999          2177.4889884784770
  0.15115000000000001          781.13638071228809
  0.15199999999999997         -470.98138542141282
  0.15284999999999999         -1585.0826976585565
  0.15370000000000000         -2568.2472533947625
  0.15454999999999997         -3428.1357165666363
  0.15539999999999998         -4172.4734284454489
  0.15625000000000000         -4808.9704977713345
  0.15709999999999996         -5345.3928163148412
  0.15794999999999998         -5789.3123260889406
  0.15880000000000000         -6148.0388455378707
  0.15965000000000001         -6428.5396232073690
  0.16049999999999998         -6637.6896803988420
  0.16134999999999999         -6782.2665467927100
  0.16220000000000001         -6869.2669327084623
  0.16304999999999997         -6905.0961637622859
  0.16389999999999999         -6895.9823710953397
  0.16475000000000001         -6847.7314455754567
  0.16559999999999997         -6765.4831684982546
  0.16644999999999999         -6653.8423274275438
  0.16730000000000000         -6516.8781586768227
  0.16814999999999997         -6358.3790222443904
  0.16899999999999998         -6181.8172371276532
  0.16985000000000000         -5990.5115601834177
  0.17069999999999996         -5787.8375862968287
  0.17154999999999998         -5576.9785804441544
  0.17240000000000000         -5360.8830957248201
  0.17325000000000002         -5141.9706763960839
  0.17409999999999998         -4922.2904533590690
  0.17494999999999999         -4703.1286765974219
  0.17580000000000001         -4485.5117175223668
  0.17664999999999997         -4270.2460084256272
  0.17749999999999999         -4058.1333582791976
  0.17835000000000001         -3850.2944927315330
  0.17919999999999997         -3647.7349730459214
  0.18004999999999999         -3451.7485976463213
  0.18090000000000001         -3263.4323152691441
  0.18174999999999997         -3083.7008278632616
  0.18259999999999998         -2912.8886698718093
  0.18345000000000000         -2751.0302868080234
  0.18429999999999996         -2597.5273090965752
  0.18514999999999998         -2451.7285732921973
  0.18600000000000000         -2313.1058504472794
  0.18684999999999996         -2181.3719368171801
  0.18769999999999998         -2056.4865351239496
  0.18855000000000000         -1938.7526814404821
  0.18940000000000001         -1828.5457648797708
  0.19024999999999997         -1726.1619500178376
  0.19109999999999999         -1631.5698272148300
  0.19195000000000001         -1544.4636512865327
  0.19279999999999997         -1464.2136714692556
  0.19364999999999999         -1390.1015616578782
  0.19450000000000001         -1321.4206192405229
  0.19534999999999997         -1257.6712851478410
  0.19619999999999999         -1198.6061875155360
  0.19705000000000000         -1144.1137075208242
  0.19789999999999996         -1094.3429375716019
  0.19874999999999998         -1049.2727584702791
  0.19960000000000000         -1008.7861438187151
  0.20044999999999996         -972.50434212966616
  0.20129999999999998         -939.97802628015097
  0.20215000000000000         -910.65492240468211
  0.20300000000000001         -884.09937736517986
  0.20384999999999998         -860.02461484091134
  0.20469999999999999         -838.29309914234295
  0.20555000000000001         -818.85753710241113
  0.20639999999999997         -801.65439140085243
  0.20724999999999999         -786.60215396261424
  0.20810000000000001         -773.38613855776737
  0.20894999999999997         -761.63941862059505
  0.20979999999999999         -750.87113835613832
  0.21065000000000000         -740.70965433905201
  0.21149999999999997         -730.81853187049865
  0.21234999999999998         -721.05906457407161
  0.21320000000000000         -711.39747385811916
  0.21404999999999996         -701.75411089972636
  0.21489999999999998         -691.98446884431030
  0.21575000000000000         -681.87436468695853
  0.21659999999999996         -671.00265828716829
  0.21744999999999998         -658.90828876076137
  0.21829999999999999         -645.16926392514529
  0.21915000000000001         -629.51922627641147
  0.21999999999999997         -611.85679993565168
  0.22084999999999999         -592.25514620185163
  0.22170000000000001         -570.93024013473746
  0.22254999999999997         -548.08364228594507
  0.22339999999999999         -523.87401348038520
  0.22425000000000000         -498.31810997488884
  0.22509999999999997         -471.34643398433548
  0.22594999999999998         -442.85858047924825
  0.22680000000000000         -412.80188736623921
  0.22764999999999996         -381.21428361621400
  0.22849999999999998         -348.31295833467897
  0.22935000000000000         -314.47293240977456
  0.23019999999999996         -280.11331318454728
  0.23104999999999998         -245.65212180491380
  0.23190000000000000         -211.46248968394676
  0.23275000000000001         -177.82086973832372
  0.23359999999999997         -145.01275004674216
  0.23444999999999999         -113.26622274977801
  0.23530000000000001         -82.907764117820975
  0.23614999999999997         -54.306112308867874
  0.23699999999999999         -27.873905173256549
  0.23785000000000001         -3.9806307624822486
  0.23869999999999997          17.121670423384980
  0.23954999999999999          35.338697515326686
  0.24040000000000000          50.722591800936954
  0.24124999999999996          63.370060331645028
  0.24209999999999998          73.371675127281208
  0.24295000000000000          80.727895351436672
  0.24379999999999996          85.295059756011497
  0.24464999999999998          86.839918530709994
  0.24550000000000000          85.111542525177498
  0.24634999999999996          79.987259641754093
  0.24719999999999998          71.550204509293309
  0.24804999999999999          60.146668537792678
  0.24890000000000001          46.348793485183450
  0.24974999999999997          30.785268177095642
  0.25059999999999999          14.029230814351681
  0.25145000000000001         -3.5619100511845598
  0.25229999999999997         -21.895476245298106
  0.25314999999999999         -41.098652365444551
  0.25400000000000000         -61.442202177495055
  0.25484999999999997         -83.087306969431168
  0.25569999999999998         -105.97976949957992
  0.25655000000000000         -129.76195575167011
  0.25739999999999996         -153.79132834952139
  0.25824999999999998         -177.26755030673974
  0.25910000000000000         -199.44370143849639
  0.25994999999999996         -219.79478898430514
  0.26079999999999998         -238.13180372874308
  0.26164999999999999         -254.60907426434065
  0.26249999999999996         -269.61943974829143
  0.26334999999999997         -283.59491245995542
  0.26419999999999999         -296.83812524235015
  0.26505000000000001         -309.36075155087337
  0.26589999999999997         -320.87124352013052
  0.26674999999999999         -330.79861295104502
  0.26760000000000000         -338.51353000056554
  0.26844999999999997         -343.42807267782808
  0.26929999999999998         -345.23146394286630
  0.27015000000000000         -343.87837657157354
  0.27099999999999996         -339.63559216546935
  0.27184999999999998         -332.98077986158239
  0.27270000000000000         -324.42733631644330
  0.27354999999999996         -314.39460762651669
  0.27439999999999998         -303.09343952286940
  0.27524999999999999         -290.52525502937272
  0.27609999999999996         -276.44404766793508
  0.27694999999999997         -260.50034808556762
  0.27779999999999999         -242.31736413064627
  0.27865000000000001         -221.63195839432052
  0.27949999999999997         -198.38268177876520
  0.28034999999999999         -172.77107735835071
  0.28120000000000001         -145.21039234497940
  0.28204999999999997         -116.34488545564535
  0.28289999999999998         -86.900585791149467
  0.28375000000000000         -57.568211989493463
  0.28459999999999996         -28.911917042244561
  0.28544999999999998         -1.2657137799774993
  0.28630000000000000          25.304751828410090
  0.28714999999999996          50.945560460036155
  0.28799999999999998          75.931617523715957
  0.28885000000000000          100.47531685150655
  0.28969999999999996          124.61202218144167
  0.29054999999999997          148.07601161115488
  0.29139999999999999          170.27380649954503
  0.29224999999999995          190.38727934050621
  0.29309999999999997          207.52576180098990
  0.29394999999999999          220.95343382944145
  0.29480000000000001          230.26790014204974
  0.29564999999999997          235.49666210566755
  0.29649999999999999          237.05180272101086
  0.29735000000000000          235.61892643299259
  0.29819999999999997          231.88684495276041
  0.29904999999999998          226.34437713239757
  0.29990000000000000          219.12176678659256
  0.30074999999999996          209.95243566579614
  0.30159999999999998          198.30183662942596
  0.30245000000000000          183.57669778492877
  0.30329999999999996          165.36725742000766
  0.30414999999999998          143.63238163804897
  0.30499999999999999          118.77247913681649
  0.30584999999999996          91.557565232022597
  0.30669999999999997          62.926608972640281
  0.30754999999999999          33.747793879344464
  0.30840000000000001          4.6255327124587531
  0.30924999999999997         -24.211299708179094
  0.31009999999999999         -52.859959430042913
  0.31095000000000000         -81.621564658576688
  0.31179999999999997         -110.78310108843915
  0.31264999999999998         -140.47320014317756
  0.31350000000000000         -170.54756956142094
  0.31434999999999996         -200.62936388234809
  0.31519999999999998         -230.21352311031922
  0.31605000000000000         -258.85187221704331
  0.31689999999999996         -286.27880323670081
  0.31774999999999998         -312.49050135758495
  0.31859999999999999         -337.73502489871811
  0.31944999999999996         -362.41263242465203
  0.32029999999999997         -386.94497291935340
  0.32114999999999999         -411.68148775087610
  0.32199999999999995         -436.85534304743811
  0.32284999999999997         -462.61524799447949
  0.32369999999999999         -489.09894478397189
  0.32455000000000001         -516.51521098271314
  0.32539999999999997         -545.20342801419918
  0.32624999999999998         -575.61949745751360
  0.32710000000000000         -608.28596088626762
  0.32794999999999996         -643.69446240531772
  0.32879999999999998         -682.25798847950102
  0.32965000000000000         -724.27154378957903
  0.33049999999999996         -769.99084043657376
  0.33134999999999998         -819.72477868889871
  0.33220000000000000         -873.92226635758072
  0.33304999999999996         -933.25690105691001
  0.33389999999999997         -998.58500814315551
  0.33474999999999999         -1070.8510781325315
  0.33559999999999995         -1150.9631293326649
  0.33644999999999997         -1239.6222150004719
  0.33729999999999999         -1337.2488010504510
  0.33815000000000001         -1443.9799827404877
  0.33899999999999997         -1559.7469679577698
  0.33984999999999999         -1684.4311100644236
  0.34070000000000000         -1818.0206437170493
  0.34154999999999996         -1960.7000646529793
  0.34239999999999998         -2112.8197601966262
  0.34325000000000000         -2274.8226593791260
  0.34409999999999996         -2447.1215729030346
  0.34494999999999998         -2629.8538675914092
  0.34580000000000000         -2822.8206187764185
  0.34664999999999996         -3025.4155461207843
  0.34749999999999998         -3236.6537851459389
  0.34834999999999999         -3455.2392091422794
  0.34919999999999995         -3679.7276987712030
  0.35004999999999997         -3908.5500879648648
  0.35089999999999999         -4140.0548898941543
  0.35174999999999995         -4372.4715064690372
  0.35259999999999997         -4603.9290602548608
  0.35344999999999999         -4832.3055590412741
  0.35430000000000000         -5055.1558378120635
  0.35514999999999997         -5269.7944214997342
  0.35599999999999998         -5473.2248020658408
  0.35685000000000000         -5662.2150414819143
  0.35769999999999996         -5833.0885381181552
  0.35854999999999998         -5981.9949356547540
  0.35940000000000000         -6104.7612040234926
  0.36024999999999996         -6196.8945630339749
  0.36109999999999998         -6253.7678326742080
  0.36194999999999999         -6270.6996467692725
  0.36279999999999996         -6243.0974656825592
  0.36364999999999997         -6166.7400697482171
  0.36449999999999999         -6037.6641964600794
  0.36534999999999995         -5852.2662550043015
  0.36619999999999997         -5607.1161463457556
  0.36704999999999999         -5299.0241770704042
  0.36790000000000000         -4924.4680368146192
  0.36874999999999997         -4480.0960667572499
  0.36959999999999998         -3962.4499514123900
  0.37045000000000000         -3368.3262903477753
  0.37129999999999996         -2695.2338277662684
  0.37214999999999998         -1941.7581221779183
  0.37300000000000000         -1107.7847557513844
  0.37384999999999996         -194.59909938553039
  0.37469999999999998          795.55976786771589
  0.37554999999999999          1859.3366863272490
  0.37639999999999996          2992.7894852616146
  0.37724999999999997          4191.7277790936614
  0.37809999999999999          5451.8227544933943
  0.37894999999999995          6768.1393879789948
  0.37979999999999997          8134.9271324250876
  0.38064999999999993          9545.2435914922698
  0.38149999999999995          10990.709780747733
  0.38234999999999997          12461.145069340815
  0.38319999999999999          13945.363110600447
  0.38405000000000000          15430.403364227721