 -0.12000000000000000         -5.2279794983780301E-007
 -0.11914999999999999         -2.2089026525663354E-007
 -0.11830000000000000          1.8417929848636366E-007
 -0.11745000000000000          2.1200320685991354E-007
 -0.11660000000000000         -5.0002159393777755E-007
 -0.11574999999999999         -1.9002269716665503E-006
 -0.11490000000000000         -3.4141690747165358E-006
 -0.11405000000000000         -4.1278548077749640E-006
 -0.11320000000000000         -3.2334624030605473E-006
 -0.11234999999999999         -5.6441563583251747E-007
 -0.11150000000000000          3.0430323509215932E-006
 -0.11065000000000000          5.8076400105148819E-006
 -0.10979999999999999          5.5870440116450416E-006
 -0.10894999999999999          8.6839663914423383E-007
 -0.10810000000000000         -8.1833103252595412E-006
 -0.10725000000000000         -1.9099103700532300E-005
 -0.10639999999999999         -2.7330763656798148E-005
 -0.10554999999999999         -2.7498834507017891E-005
 -0.10470000000000000         -1.5438038318593155E-005
 -0.10385000000000000          9.5889698571532099E-006
 -0.10299999999999999          4.3377746673641036E-005
 -0.10214999999999999          7.6769459457722366E-005
 -0.10130000000000000          9.7534083850999960E-005
 -0.10045000000000000          9.3887711882484321E-005
  -9.9599999999999994E-002     5.8692064192389698E-005
  -9.8750000000000004E-002    -7.0645326483731609E-006
  -9.7900000000000001E-002    -9.2903626083605371E-005
  -9.7049999999999997E-002    -1.8046411099662297E-004
  -9.6199999999999994E-002    -2.4798255736630144E-004
  -9.5349999999999990E-002    -2.7649667138128628E-004
  -9.4500000000000001E-002    -2.5583561501513088E-004
  -9.3649999999999997E-002    -1.8833100917479029E-004
  -9.2799999999999994E-002    -8.8761079778522302E-005
  -9.1950000000000004E-002     1.9717660887182180E-005
  -9.1100000000000000E-002     1.1248854393731842E-004
  -9.0249999999999997E-002     1.7092951104227333E-004
  -8.9399999999999993E-002     1.8777272550241309E-004
  -8.8549999999999990E-002     1.6832918588408622E-004
  -8.7700000000000000E-002     1.2701626637691443E-004
  -8.6849999999999997E-002     8.0432902252272859E-005
  -8.5999999999999993E-002     3.9609601834100479E-005
  -8.5150000000000003E-002     4.6465476764899569E-006
  -8.4300000000000000E-002    -3.5799774996526468E-005
  -8.3449999999999996E-002    -9.9495844027909747E-005
  -8.2600000000000007E-002    -2.0162239955703193E-004
  -8.1749999999999989E-002    -3.4516632605168711E-004
  -8.0900000000000000E-002    -5.1475944825924835E-004
  -8.0049999999999996E-002    -6.7726511893656896E-004
  -7.9199999999999993E-002    -7.8992353580529823E-004
  -7.8350000000000003E-002    -8.1423244921349693E-004
  -7.7499999999999999E-002    -7.3112560306184786E-004
  -7.6649999999999996E-002    -5.5170990299328610E-004
  -7.5800000000000006E-002    -3.1935315081424356E-004
  -7.4949999999999989E-002    -1.0051176828894176E-004
  -7.4099999999999999E-002     3.3150102633192763E-005
  -7.3249999999999996E-002     2.6809175953814487E-005
  -7.2399999999999992E-002    -1.3889403810717418E-004
  -7.1550000000000002E-002    -4.3920388432234277E-004
  -7.0699999999999999E-002    -8.1021926548264893E-004
  -6.9849999999999995E-002    -1.1670219997766363E-003
  -6.9000000000000006E-002    -1.4294591428998761E-003
  -6.8149999999999988E-002    -1.5480665770327773E-003
  -6.7299999999999999E-002    -1.5206568102566920E-003
  -6.6449999999999995E-002    -1.3943028842795272E-003
  -6.5599999999999992E-002    -1.2510178466567969E-003
  -6.4750000000000002E-002    -1.1815509328025873E-003
  -6.3899999999999998E-002    -1.2549965181297140E-003
  -6.3049999999999995E-002    -1.4949268324380861E-003
  -6.2199999999999998E-002    -1.8704070220680810E-003
  -6.1350000000000002E-002    -2.3035595367826497E-003
  -6.0499999999999998E-002    -2.6943507371309291E-003
  -5.9650000000000002E-002    -2.9512346835087883E-003
  -5.8799999999999998E-002    -3.0226103942780289E-003
  -5.7950000000000002E-002    -2.9147860421608225E-003
  -5.7099999999999998E-002    -2.6888576055212540E-003
  -5.6249999999999994E-002    -2.4453120744564183E-003
  -5.5400000000000005E-002    -2.2908661853067031E-003
  -5.4550000000000001E-002    -2.3043797958670689E-003
  -5.3699999999999998E-002    -2.5130378880031251E-003
  -5.2849999999999994E-002    -2.8816937757346790E-003
  -5.2000000000000005E-002    -3.3230767434558224E-003
  -5.1150000000000001E-002    -3.7238730244686102E-003
  -5.0299999999999997E-002    -3.9795915713966637E-003
  -4.9449999999999994E-002    -4.0229787951406998E-003
  -4.8600000000000004E-002    -3.8423210565776550E-003
  -4.7750000000000001E-002    -3.4831167367174454E-003
  -4.6899999999999997E-002    -3.0289607045877361E-003
  -4.6049999999999994E-002    -2.5692808377297330E-003
  -4.5200000000000004E-002    -2.1760480322488111E-003
  -4.4350000000000001E-002    -1.8716220333451945E-003
  -4.3499999999999997E-002    -1.6341715328417415E-003
  -4.2649999999999993E-002    -1.3838597774831207E-003
  -4.1800000000000004E-002    -1.0391660123495895E-003
  -4.0950000000000000E-002    -5.1090560327758921E-004
  -4.0099999999999997E-002     2.3564198062263472E-004
  -3.9249999999999993E-002     1.1924612159131373E-003
  -3.8400000000000004E-002     2.3083320035821994E-003
  -3.7550000000000000E-002     3.4908001011636144E-003
  -3.6699999999999997E-002     4.6561323761286841E-003
  -3.5850000000000007E-002     5.7479318385821251E-003
  -3.5000000000000003E-002     6.7423942704177287E-003
  -3.4150000000000000E-002     7.6832117225159591E-003
  -3.3299999999999996E-002     8.6426036638720949E-003
  -3.2450000000000007E-002     9.7099844787468526E-003
  -3.1600000000000003E-002     1.0966897531788339E-002
  -3.0750000000000000E-002     1.2425984161233403E-002
  -2.9899999999999996E-002     1.4078607340811081E-002
  -2.9050000000000006E-002     1.5836811981103996E-002
  -2.8200000000000003E-002     1.7599386917127771E-002
  -2.7349999999999999E-002     1.9248992679671895E-002
  -2.6499999999999996E-002     2.0682524581139700E-002
  -2.5650000000000006E-002     2.1831427321634012E-002
  -2.4800000000000003E-002     2.2691235836032220E-002
  -2.3949999999999999E-002     2.3313644292052821E-002
  -2.3099999999999996E-002     2.3758630203915831E-002
  -2.2250000000000006E-002     2.4105973167170835E-002
  -2.1400000000000002E-002     2.4347781146132508E-002
  -2.0549999999999999E-002     2.4526413993230328E-002
  -1.9699999999999995E-002     2.4551275532648104E-002
  -1.8850000000000006E-002     2.4368915632577121E-002
  -1.8000000000000002E-002     2.3873303266034679E-002
  -1.7149999999999999E-002     2.2932119013432506E-002
  -1.6299999999999995E-002     2.1526824194321198E-002
  -1.5450000000000005E-002     1.9668590247369611E-002
  -1.4600000000000002E-002     1.7359769337116859E-002
  -1.3749999999999998E-002     1.4689795027920866E-002
  -1.2899999999999995E-002     1.1698343019461266E-002
  -1.2050000000000005E-002     8.4450926361736844E-003
  -1.1200000000000002E-002     4.9733647934064873E-003
  -1.0349999999999998E-002     1.2805938066699496E-003
  -9.5000000000000084E-003    -2.6794168779455119E-003
  -8.6500000000000049E-003    -6.8884209024147047E-003
  -7.8000000000000014E-003    -1.1389006107427102E-002
  -6.9499999999999978E-003    -1.6146762055045533E-002
  -6.1000000000000082E-003    -2.1061006658800396E-002
  -5.2500000000000047E-003    -2.6070790801165492E-002
  -4.4000000000000011E-003    -3.1085012967933881E-002
  -3.5499999999999976E-003    -3.5968185684923645E-002
  -2.7000000000000079E-003    -4.0690470034823650E-002
  -1.8500000000000044E-003    -4.5184515989242183E-002
  -1.0000000000000009E-003    -4.9337250913679229E-002
  -1.4999999999999736E-004    -5.3109495923071376E-002
   6.9999999999999230E-004    -5.6437022169285284E-002
   1.5499999999999958E-003    -5.9225301279225470E-002
   2.3999999999999994E-003    -6.1406202398102350E-002
   3.2500000000000029E-003    -6.3003496767188388E-002
   4.0999999999999925E-003    -6.3845025215373996E-002
   4.9499999999999961E-003    -6.3971228373298467E-002
   5.7999999999999996E-003    -6.3280491018882362E-002
   6.6499999999999893E-003    -6.1792266016885117E-002
   7.5000000000000067E-003    -5.9413234652937241E-002
   8.3499999999999963E-003    -5.6271295698641310E-002
   9.1999999999999860E-003    -5.2414338318099218E-002
   1.0050000000000003E-002    -4.7763309700282919E-002
   1.0899999999999993E-002    -4.2314698291523345E-002
   1.1750000000000010E-002    -3.6074899872675203E-002
   1.2600000000000000E-002    -2.8985014036086332E-002
   1.3449999999999990E-002    -2.1220985364077516E-002
   1.4300000000000007E-002    -1.2921590749352008E-002
   1.5149999999999997E-002    -4.2677294498015272E-003
   1.5999999999999986E-002     4.5803184971820454E-003
   1.6850000000000004E-002     1.3530776189747407E-002
   1.7699999999999994E-002     2.2356564760651843E-002
   1.8549999999999983E-002     3.1121536160568009E-002
   1.9400000000000001E-002     3.9637691616896564E-002
   2.0249999999999990E-002     4.7915694403388887E-002
   2.1100000000000008E-002     5.5834954171489148E-002
   2.1949999999999997E-002     6.3246625919119837E-002
   2.2799999999999987E-002     7.0215097376239433E-002
   2.3650000000000004E-002     7.6400855247705290E-002
   2.4499999999999994E-002     8.1718935220202404E-002
   2.5349999999999984E-002     8.5884024133002723E-002
   2.6200000000000001E-002     8.8827637515022817E-002
   2.7049999999999991E-002     9.0362526701102966E-002
   2.7900000000000008E-002     9.0501109236500871E-002
   2.8749999999999998E-002     8.9336574237143751E-002
   2.9599999999999987E-002     8.6896158959994946E-002
   3.0450000000000005E-002     8.3294087258405508E-002
   3.1299999999999994E-002     7.8676197362826022E-002
   3.2149999999999984E-002     7.3011698508335360E-002
   3.3000000000000002E-002     6.6445154726482436E-002
   3.3849999999999991E-002     5.8928531605100573E-002
   3.4700000000000009E-002     5.0526401222363376E-002
   3.5549999999999998E-002     4.1244617113195658E-002
   3.6399999999999988E-002     3.1228044514304970E-002
   3.7250000000000005E-002     2.0635578724066128E-002
   3.8099999999999995E-002     9.6034238907563296E-003
   3.8949999999999985E-002    -1.6703310187601295E-003
   3.9800000000000002E-002    -1.2896595826103252E-002
   4.0649999999999992E-002    -2.3780547585142031E-002
   4.1500000000000009E-002    -3.4128158577622303E-002
   4.2349999999999999E-002    -4.3981372629185667E-002
   4.3199999999999988E-002    -5.3050426688553587E-002
   4.4050000000000006E-002    -6.1343636871336760E-002
   4.4899999999999995E-002    -6.8837394662111917E-002
   4.5749999999999985E-002    -7.5230206053433502E-002
   4.6600000000000003E-002    -8.0506443568311992E-002
   4.7449999999999992E-002    -8.4770418252126278E-002
   4.8299999999999982E-002    -8.7866389025823499E-002
   4.9149999999999999E-002    -8.9715026630300843E-002
   4.9999999999999989E-002    -9.0234719795569129E-002
   5.0850000000000006E-002    -8.9362698337085822E-002
   5.1699999999999996E-002    -8.7166252388382937E-002
   5.2549999999999986E-002    -8.3552670271559465E-002
   5.3400000000000003E-002    -7.8728747357211304E-002
   5.4249999999999993E-002    -7.2445548022887662E-002
   5.5099999999999982E-002    -6.5205583403264239E-002
   5.5950000000000000E-002    -5.7148309018761473E-002
   5.6799999999999989E-002    -4.8594245343388964E-002
   5.7650000000000007E-002    -3.9557057639779708E-002
   5.8499999999999996E-002    -3.0332533025900943E-002
   5.9349999999999986E-002    -2.0941784026847973E-002
   6.0200000000000004E-002    -1.1452696623845737E-002
   6.1049999999999993E-002    -1.9176251263979746E-003
   6.1899999999999983E-002     7.4251266355663051E-003
   6.2750000000000000E-002     1.6657903757573870E-002
   6.3599999999999990E-002     2.5634009234709664E-002
   6.4450000000000007E-002     3.4258448298601571E-002
   6.5299999999999997E-002     4.2164012407192059E-002
   6.6149999999999987E-002     4.9280656292201262E-002
   6.7000000000000004E-002     5.5525293970181112E-002
   6.7849999999999994E-002     6.0551031361374602E-002
   6.8699999999999983E-002     6.4466418102893386E-002
   6.9550000000000001E-002     6.7180695511632207E-002
   7.0399999999999990E-002     6.8843568955772039E-002
   7.1249999999999980E-002     6.9442467378562883E-002
   7.2099999999999997E-002     6.9141990574876522E-002
   7.2949999999999987E-002     6.7980240316434487E-002
   7.3800000000000004E-002     6.5972877792906989E-002
   7.4649999999999994E-002     6.3177546542068738E-002
   7.5499999999999984E-002     5.9593343250968850E-002
   7.6350000000000001E-002     5.5353616815834839E-002
   7.7199999999999991E-002     5.0416776623350659E-002
   7.8049999999999981E-002     4.4921241962508698E-002
   7.8899999999999998E-002     3.8894227120405730E-002
   7.9749999999999988E-002     3.2439552599176649E-002
   8.0600000000000005E-002     2.5714130241499079E-002
   8.1449999999999995E-002     1.8867258758488534E-002
   8.2299999999999984E-002     1.2019224774048973E-002
   8.3150000000000002E-002     5.3815800356239313E-003
   8.3999999999999991E-002    -9.3729348599835838E-004
   8.4849999999999981E-002    -6.8655525851850779E-003
   8.5699999999999998E-002    -1.2356495013683994E-002
   8.6549999999999988E-002    -1.7381272161163766E-002
   8.7400000000000005E-002    -2.1973850143949848E-002
   8.8249999999999995E-002    -2.6153391564251574E-002
   8.9099999999999985E-002    -2.9867745024587451E-002
   8.9950000000000002E-002    -3.3078947344633083E-002
   9.0799999999999992E-002    -3.5660116921488821E-002
   9.1649999999999981E-002    -3.7641092892316638E-002
   9.2499999999999999E-002    -3.8887450580051192E-002
   9.3349999999999989E-002    -3.9418776204644894E-002
   9.4200000000000006E-002    -3.9268564310634246E-002
   9.5049999999999996E-002    -3.8499528777806095E-002
   9.5899999999999985E-002    -3.7217572969789975E-002
   9.6750000000000003E-002    -3.5493472335925043E-002
   9.7599999999999992E-002    -3.3397744737911142E-002
   9.8449999999999982E-002    -3.1051777030932731E-002
   9.9299999999999999E-002    -2.8478093684936548E-002
  0.10014999999999999         -2.5657138817146902E-002
  0.10099999999999998         -2.2620081054465124E-002
  0.10185000000000000         -1.9403758893074857E-002
  0.10269999999999999         -1.6088016881481836E-002
  0.10355000000000000         -1.2718942205643497E-002
  0.10439999999999999         -9.4135951951679845E-003
  0.10524999999999998         -6.1704379548590217E-003
  0.10610000000000000         -3.0997996263452364E-003
  0.10694999999999999         -1.2508975213188292E-004
  0.10779999999999998          2.6927968257323617E-003
  0.10865000000000000          5.3534504124748798E-003
  0.10949999999999999          7.8153647207804631E-003
  0.11035000000000000          1.0029424967185769E-002
  0.11119999999999999          1.1925676165962460E-002
  0.11204999999999998          1.3472425883787151E-002
  0.11290000000000000          1.4599376068150439E-002
  0.11374999999999999          1.5311734085411718E-002
  0.11459999999999998          1.5635584354853321E-002
  0.11545000000000000          1.5673473016696617E-002
  0.11629999999999999          1.5498520095353005E-002
  0.11715000000000000          1.5203378973413907E-002
  0.11799999999999999          1.4808376742434941E-002
  0.11884999999999998          1.4293513749192816E-002
  0.11970000000000000          1.3673965689323825E-002
  0.12054999999999999          1.2835179343659390E-002
  0.12139999999999998          1.1753283040141425E-002
  0.12225000000000000          1.0407669600476304E-002
  0.12309999999999999          8.8474152477635414E-003
  0.12395000000000000          7.1575731265831940E-003
  0.12479999999999999          5.4778034508232787E-003
  0.12564999999999998          3.9062033790056572E-003
  0.12650000000000000          2.4890205415001548E-003
  0.12734999999999999          1.2600754647601065E-003
  0.12819999999999998          1.6300842861162110E-004
  0.12905000000000000         -8.6079567574564274E-004
  0.12989999999999999         -1.8789768600509810E-003
  0.13074999999999998         -2.9498246614599009E-003
  0.13159999999999999         -4.0686390595090459E-003
  0.13245000000000001         -5.1775988923988478E-003
  0.13329999999999997         -6.2187417910599292E-003
  0.13414999999999999         -7.0848450697307596E-003
  0.13500000000000001         -7.7090839586244544E-003
  0.13584999999999997         -8.0675794055562362E-003
  0.13669999999999999         -8.1409933562173846E-003
  0.13755000000000001         -7.9774651934028384E-003
  0.13839999999999997         -7.6513349457311237E-003
  0.13924999999999998         -7.2108595242885674E-003
  0.14010000000000000         -6.7123059108388288E-003
  0.14094999999999996         -6.1702202760151158E-003
  0.14179999999999998         -5.5925979591698290E-003
  0.14265000000000000         -4.9780628911328647E-003
  0.14350000000000002         -4.3072763107593372E-003
  0.14434999999999998         -3.5669931578938938E-003
  0.14520000000000000         -2.7649944020792889E-003
  0.14605000000000001         -1.9005288507510788E-003
  0.14689999999999998         -1.0003407490858053E-003
  0.14774999999999999         -7.7903061454498868E-005
  0.14860000000000001          8.5126697408213227E-004
  0.14944999999999997          1.7652826266568262E-003
  0.15029999999999999          2.6421991991119886E-003
  0.15115000000000001          3.4575847803503400E-003
  0.15199999999999997          4.1935505584135566E-003
  0.15284999999999999          4.8327754672917028E-003
  0.15370000000000000          5.3766118528650745E-003
  0.15454999999999997          5.8240603492957337E-003
  0.15539999999999998          6.1885760876528601E-003
  0.15625000000000000          6.4848333198802054E-003
  0.15709999999999996          6.7335024620656415E-003
  0.15794999999999998          6.9316004827171731E-003
  0.15880000000000000          7.0553766649107605E-003
  0.15965000000000001          7.0765267446981162E-003
  0.16049999999999998          6.9516366251828688E-003
  0.16134999999999999          6.6519051000958340E-003
  0.16220000000000001          6.1647836925137652E-003
  0.16304999999999997          5.5153151163707618E-003
  0.16389999999999999          4.7528456393592213E-003
  0.16475000000000001          3.9424130273656953E-003
  0.16559999999999997          3.1507523566866261E-003
  0.16644999999999999          2.4201148117222156E-003
  0.16730000000000000          1.7660841661832783E-003
  0.16814999999999997          1.1559234491530677E-003
  0.16899999999999998          5.4019499355900766E-004
  0.16985000000000000         -1.3920427619158434E-004
  0.17069999999999996         -9.2065629685130846E-004
  0.17154999999999998         -1.8042226028383243E-003
  0.17240000000000000         -2.7600604563751195E-003
  0.17325000000000002         -3.7246611426266377E-003
  0.17409999999999998         -4.6177234407716395E-003
  0.17494999999999999         -5.3788784544860739E-003
  0.17580000000000001         -5.9653677076850721E-003
  0.17664999999999997         -6.3744494224213504E-003
  0.17749999999999999         -6.6324458012478084E-003
  0.17835000000000001         -6.7907196169925280E-003
  0.17919999999999997         -6.8861667804147189E-003
  0.18004999999999999         -6.9434134802558150E-003
  0.18090000000000001         -6.9629760554953818E-003
  0.18174999999999997         -6.9255811372712795E-003
  0.18259999999999998         -6.8072540337183844E-003
  0.18345000000000000         -6.5891967615162731E-003
  0.18429999999999996         -6.2665091722144770E-003
  0.18514999999999998         -5.8582851831337985E-003
  0.18600000000000000         -5.3910011531357388E-003
  0.18684999999999996         -4.8893402343584188E-003
  0.18769999999999998         -4.3683145255677541E-003
  0.18855000000000000         -3.8185122325230625E-003
  0.18940000000000001         -3.2178978264756197E-003
  0.19024999999999997         -2.5333586908528704E-003
  0.19109999999999999         -1.7438791253367989E-003
  0.19195000000000001         -8.4340841725710249E-004
  0.19279999999999997          1.3922964887253084E-004
  0.19364999999999999          1.1531860693905840E-003
  0.19450000000000001          2.1372904524123966E-003
  0.19534999999999997          3.0340606034977543E-003
  0.19619999999999999          3.8107155657661285E-003
  0.19705000000000000          4.4603934669011948E-003
  0.19789999999999996          4.9989704498128278E-003
  0.19874999999999998          5.4602776048314544E-003
  0.19960000000000000          5.8755266586736302E-003
  0.20044999999999996          6.2625638046339971E-003
  0.20129999999999998          6.6166453106945439E-003
  0.20215000000000000          6.9150613554854502E-003
  0.20300000000000001          7.1254189214427516E-003
  0.20384999999999998          7.2201260143844505E-003
  0.20469999999999999          7.1903349297126251E-003
  0.20555000000000001          7.0404470657522969E-003
  0.20639999999999997          6.7913497854706776E-003
  0.20724999999999999          6.4737826999193360E-003
  0.20810000000000001          6.1075558595392321E-003
  0.20894999999999997          5.7015806923500474E-003
  0.20979999999999999          5.2463947793063336E-003
  0.21065000000000000          4.7245571213516196E-003
  0.21149999999999997          4.1160787228906757E-003
  0.21234999999999998          3.4183989139140963E-003
  0.21320000000000000          2.6366164651109216E-003
  0.21404999999999996          1.7983414848574172E-003
  0.21489999999999998          9.4043324259674202E-004
  0.21575000000000000          9.4120468424447397E-005
  0.21659999999999996         -7.1580311384351913E-004
  0.21744999999999998         -1.4834429805542847E-003
  0.21829999999999999         -2.2173437566772002E-003
  0.21915000000000001         -2.9291784306628077E-003
  0.21999999999999997         -3.6291544277693641E-003
  0.22084999999999999         -4.3122159110691024E-003
  0.22170000000000001         -4.9587129487299771E-003
  0.22254999999999997         -5.5355313613630166E-003
  0.22339999999999999         -6.0110626278311128E-003
  0.22425000000000000         -6.3623690662172865E-003
  0.22509999999999997         -6.5879832445777664E-003
  0.22594999999999998         -6.7053837386237313E-003
  0.22680000000000000         -6.7490801232606475E-003
  0.22764999999999996         -6.7524743567322588E-003
  0.22849999999999998         -6.7372381700091140E-003
  0.22935000000000000         -6.7060952563601436E-003
  0.23019999999999996         -6.6344824833735007E-003
  0.23104999999999998         -6.4833032017710505E-003
  0.23190000000000000         -6.2149844006934938E-003
  0.23275000000000001         -5.8010443770031570E-003
  0.23359999999999997         -5.2427065993137442E-003
  0.23444999999999999         -4.5643696305981904E-003
  0.23530000000000001         -3.8155566777591894E-003
  0.23614999999999997         -3.0484727472447244E-003
  0.23699999999999999         -2.3097589204112948E-003
  0.23785000000000001         -1.6211228446252632E-003
  0.23869999999999997         -9.7837507403739131E-004
  0.23954999999999999         -3.5357744237266518E-004
  0.24040000000000000          2.8831912421007749E-004
  0.24124999999999996          9.8091885613822661E-004
  0.24209999999999998          1.7365058986698394E-003
  0.24295000000000000          2.5447998093159683E-003
  0.24379999999999996          3.3717955048252453E-003
  0.24464999999999998          4.1717079241540391E-003
  0.24550000000000000          4.8972198661703589E-003
  0.24634999999999996          5.5117018754416401E-003
  0.24719999999999998          5.9935674895443738E-003
  0.24804999999999999          6.3442280586866236E-003
  0.24890000000000001          6.5764261171921898E-003
  0.24974999999999997          6.7121700829981951E-003
  0.25059999999999999          6.7739776619648688E-003
  0.25145000000000001          6.7775198159427640E-003
  0.25229999999999997          6.7321133363903805E-003
  0.25314999999999999          6.6385601988811441E-003
  0.25400000000000000          6.4930413629007803E-003
  0.25484999999999997          6.2862761342574536E-003
  0.25569999999999998          6.0080665395584876E-003
  0.25655000000000000          5.6482350035579115E-003
  0.25739999999999996          5.1946806890773682E-003
  0.25824999999999998          4.6408818821763167E-003
  0.25910000000000000          3.9890272615274499E-003
  0.25994999999999996          3.2541053564019446E-003
  0.26079999999999998          2.4614727245934852E-003
  0.26164999999999999          1.6505780948176106E-003
  0.26249999999999996          8.6217924863843387E-004
  0.26334999999999997          1.2976689305574493E-004
  0.26419999999999999         -5.2772152150008832E-004
  0.26505000000000001         -1.1157648526181204E-003
  0.26589999999999997         -1.6622085989162190E-003
  0.26674999999999999         -2.2066370813994011E-003
  0.26760000000000000         -2.7872928620235118E-003
  0.26844999999999997         -3.4232753297519735E-003
  0.26929999999999998         -4.1056102872223119E-003
  0.27015000000000000         -4.7937809191441836E-003
  0.27099999999999996         -5.4238822139758662E-003
  0.27184999999999998         -5.9288235148305772E-003
  0.27270000000000000         -6.2596314266616790E-003
  0.27354999999999996         -6.4007561241105678E-003
  0.27439999999999998         -6.3805230391575877E-003
  0.27524999999999999         -6.2602333387366165E-003
  0.27609999999999996         -6.1153745187008529E-003
  0.27694999999999997         -6.0082900671250290E-003
  0.27779999999999999         -5.9684354485007116E-003
  0.27865000000000001         -5.9765107022327780E-003
  0.27949999999999997         -5.9715589393771170E-003
  0.28034999999999999         -5.8696708011921513E-003
  0.28120000000000001         -5.5928556104705334E-003
  0.28204999999999997         -5.0984852818739008E-003
  0.28289999999999998         -4.3960073836821541E-003
  0.28375000000000000         -3.5470095225680984E-003
  0.28459999999999996         -2.6492623920275028E-003
  0.28544999999999998         -1.8072924725413540E-003
  0.28630000000000000         -1.0957268912632555E-003
  0.28714999999999996         -5.4240823540824322E-004
  0.28799999999999998         -1.1777366923715332E-004
  0.28885000000000000          2.5246172078725784E-004
  0.28969999999999996          6.5961583844525789E-004
  0.29054999999999997          1.1807187915109751E-003
  0.29139999999999999          1.8517250999360055E-003
  0.29224999999999995          2.6527738300727768E-003
  0.29309999999999997          3.5161654934466892E-003
  0.29394999999999999          4.3453826668163678E-003
  0.29480000000000001          5.0454034783839535E-003
  0.29564999999999997          5.5502414831891857E-003
  0.29649999999999999          5.8395755230421188E-003
  0.29735000000000000          5.9417734451172322E-003
  0.29819999999999997          5.9206412020970101E-003
  0.29904999999999998          5.8512561368065331E-003
  0.29990000000000000          5.7977402462301882E-003
  0.30074999999999996          5.7946847040440787E-003
  0.30159999999999998          5.8405262563847957E-003
  0.30245000000000000          5.9000028193677469E-003
  0.30329999999999996          5.9202319361863244E-003
  0.30414999999999998          5.8456118415805584E-003
  0.30499999999999999          5.6331824090070917E-003
  0.30584999999999996          5.2616284225856826E-003
  0.30669999999999997          4.7322645694518441E-003
  0.30754999999999999          4.0692731938312167E-003
  0.30840000000000001          3.3115909034895454E-003
  0.30924999999999997          2.5076398908780630E-003
  0.31009999999999999          1.7080603526763568E-003
  0.31095000000000000          9.6136007576269708E-004
  0.31179999999999997          3.0209343980448479E-004
  0.31264999999999998         -2.5153903897767970E-004
  0.31350000000000000         -7.0481112760946082E-004
  0.31434999999999996         -1.0864588504441209E-003
  0.31519999999999998         -1.4462934745164138E-003
  0.31605000000000000         -1.8415912641327719E-003
  0.31689999999999996         -2.3195219644379589E-003
  0.31774999999999998         -2.9025424975152800E-003
  0.31859999999999999         -3.5721740136330895E-003
  0.31944999999999996         -4.2690867507818231E-003
  0.32029999999999997         -4.9071946168541495E-003
  0.32114999999999999         -5.3942625638533767E-003
  0.32199999999999995         -5.6617002438851347E-003
  0.32284999999999997         -5.6877801785853036E-003
  0.32369999999999999         -5.5093064713649647E-003
  0.32455000000000001         -5.2131105535336130E-003
  0.32539999999999997         -4.9125822663414415E-003
  0.32624999999999998         -4.7124123189818696E-003
  0.32710000000000000         -4.6734922835418363E-003
  0.32794999999999996         -4.7922305187347441E-003
  0.32879999999999998         -4.9988546054986968E-003
  0.32965000000000000         -5.1792030425365562E-003
  0.33049999999999996         -5.2090124640254056E-003
  0.33134999999999998         -4.9943019039738086E-003
  0.33220000000000000         -4.5016454677108660E-003
  0.33304999999999996         -3.7688417233129419E-003
  0.33389999999999997         -2.8923140281844743E-003
  0.33474999999999999         -1.9967251075428153E-003
  0.33559999999999995         -1.1958016935299867E-003
  0.33644999999999997         -5.6050160686278618E-004
  0.33729999999999999         -1.0038380047163728E-004
  0.33815000000000001          2.3216238596928030E-004
  0.33899999999999997          5.1832960916532592E-004
  0.33984999999999999          8.4307820115117095E-004
  0.34070000000000000          1.2643593340927312E-003
  0.34154999999999996          1.7963110823292071E-003
  0.34239999999999998          2.4087259264178452E-003