 -0.12000000000000000          0.0000000000000000
 -0.11914999999999999          0.0000000000000000
 -0.11830000000000000          0.0000000000000000
 -0.11745000000000000          0.0000000000000000
 -0.11660000000000000          0.0000000000000000
 -0.11574999999999999          0.0000000000000000
 -0.11490000000000000          0.0000000000000000
 -0.11405000000000000          2.5208637058596078E-024
 -0.11320000000000000          2.7823181180901076E-023
 -0.11234999999999999          1.5165555564549838E-022
 -0.11150000000000000          5.2410650462065228E-022
 -0.11065000000000000          1.1868970647323894E-021
 -0.10979999999999999          1.3530465013901071E-021
 -0.10894999999999999         -2.0307617151283004E-021
 -0.10810000000000000         -1.5647632340600679E-020
 -0.10725000000000000         -4.8316366762359480E-020
 -0.10639999999999999         -1.0181798857688773E-019
 -0.10554999999999999         -1.4999046239100720E-019
 -0.10470000000000000         -1.0973051453665146E-019
 -0.10385000000000000          1.7548841338456747E-019
 -0.10299999999999999          8.9730590194325885E-019
 -0.10214999999999999          2.1369290953838748E-018
 -0.10130000000000000          3.5878909231992669E-018
 -0.10045000000000000          4.2136402557440125E-018
  -9.9599999999999994E-002     2.0588108429110224E-018
  -9.8750000000000004E-002    -5.4100324652636109E-018
  -9.7900000000000001E-002    -2.0021289204770607E-017
  -9.7049999999999997E-002    -4.0507320918964283E-017
  -9.6199999999999994E-002    -5.9490085779971075E-017
  -9.5349999999999990E-002    -6.1322045478309372E-017
  -9.4500000000000001E-002    -2.3239762668208591E-017
  -9.3649999999999997E-002     7.7431808556515645E-017
  -9.2799999999999994E-002     2.4853603133557486E-016
  -9.1950000000000004E-002     4.6266355014928321E-016
  -9.1100000000000000E-002     6.3810488247901883E-016
  -9.0249999999999997E-002     6.3367455378048402E-016
  -8.9399999999999993E-002     2.7263783138702615E-016
  -8.8549999999999990E-002    -5.9268141685155559E-016
  -8.7700000000000000E-002    -1.9768703072703899E-015
  -8.6849999999999997E-002    -3.6410797907341649E-015
  -8.5999999999999993E-002    -5.0052255669577913E-015
  -8.5150000000000003E-002    -5.1608282512734844E-015
  -8.4300000000000000E-002    -3.0512624925176292E-015
  -8.3449999999999996E-002     2.1482024183755185E-015
  -8.2600000000000007E-002     1.0490025573925782E-014
  -8.1749999999999989E-002     2.0691517625809402E-014
  -8.0900000000000000E-002     2.9783175551888007E-014
  -8.0049999999999996E-002     3.3250772833458699E-014
  -7.9199999999999993E-002     2.5908486946901524E-014
  -7.8350000000000003E-002     3.5696549942044344E-015
  -7.7499999999999999E-002    -3.4707842617296698E-014
  -7.6649999999999996E-002    -8.4373956817657653E-014
  -7.5800000000000006E-002    -1.3400605891550450E-013
  -7.4949999999999989E-002    -1.6576760231799761E-013
  -7.4099999999999999E-002    -1.5845604073819195E-013
  -7.3249999999999996E-002    -9.3283767012189206E-014
  -7.2399999999999992E-002     3.8392024536829056E-014
  -7.1550000000000002E-002     2.2721920114043004E-013
  -7.0699999999999999E-002     4.4053601142848620E-013
  -6.9849999999999995E-002     6.2247890643774068E-013
  -6.9000000000000006E-002     7.0172764296554807E-013
  -6.8149999999999988E-002     6.0742473730397330E-013
  -6.7299999999999999E-002     2.9133483496465174E-013
  -6.6449999999999995E-002    -2.4840107745269648E-013
  -6.5599999999999992E-002    -9.4870802649058146E-013
  -6.4750000000000002E-002    -1.6757097718628180E-012
  -6.3899999999999998E-002    -2.2376290101620235E-012
  -6.3049999999999995E-002    -2.4188277976550048E-012
  -6.2199999999999998E-002    -2.0318191741991063E-012
  -6.1350000000000002E-002    -9.7791195376213994E-013
  -6.0499999999999998E-002     6.9799219733034262E-013
  -5.9650000000000002E-002     2.7752643181970200E-012
  -5.8799999999999998E-002     4.8630390941346155E-012
  -5.7950000000000002E-002     6.4517989027141014E-012
  -5.7099999999999998E-002     7.0091672733775815E-012
  -5.6249999999999994E-002     6.1058546660805690E-012
  -5.5400000000000005E-002     3.5466384448909091E-012
  -5.4550000000000001E-002    -5.2544311325790627E-013
  -5.3699999999999998E-002    -5.5832753522015103E-012
  -5.2849999999999994E-002    -1.0751437055712609E-011
  -5.2000000000000005E-002    -1.4931033859397387E-011
  -5.1150000000000001E-002    -1.7000719876992768E-011
  -5.0299999999999997E-002    -1.6060596778137755E-011
  -4.9449999999999994E-002    -1.1670108442724273E-011
  -4.8600000000000004E-002    -4.0249529108797893E-012
  -4.7750000000000001E-002     5.9759190157396158E-012
  -4.6899999999999997E-002     1.6803858920248826E-011
  -4.6049999999999994E-002     2.6517566196874007E-011
  -4.5200000000000004E-002     3.3095084881482002E-011
  -4.4350000000000001E-002     3.4823725497167331E-011
  -4.3499999999999997E-002     3.0672310401126618E-011
  -4.2649999999999993E-002     2.0566818194195792E-011
  -4.1800000000000004E-002     5.5041591893904940E-012
  -4.0950000000000000E-002    -1.2531939257670710E-011
  -4.0099999999999997E-002    -3.0849941387182152E-011
  -3.9249999999999993E-002    -4.6480591518702767E-011
  -3.8400000000000004E-002    -5.6680761542809164E-011
  -3.7550000000000000E-002    -5.9415537352089352E-011
  -3.6699999999999997E-002    -5.3725140755476400E-011
  -3.5850000000000007E-002    -3.9905342286507415E-011
  -3.5000000000000003E-002    -1.9468484765733038E-011
  -3.4150000000000000E-002     5.1021227297906985E-012
  -3.3299999999999996E-002     3.0749344320706008E-011
  -3.2450000000000007E-002     5.4306467346002122E-011
  -3.1600000000000003E-002     7.2935455254587428E-011
  -3.0750000000000000E-002     8.4459895216343553E-011
  -2.9899999999999996E-002     8.7545440658086118E-011
  -2.9050000000000006E-002     8.1723148659943625E-011
  -2.8200000000000003E-002     6.7291217734659110E-011
  -2.7349999999999999E-002     4.5158299489540818E-011
  -2.6499999999999996E-002     1.6697634449854630E-011
  -2.5650000000000006E-002    -1.6335188136472955E-011
  -2.4800000000000003E-002    -5.1803270087173100E-011
  -2.3949999999999999E-002    -8.7132663928860012E-011
  -2.3099999999999996E-002    -1.1926145817775190E-010
  -2.2250000000000006E-002    -1.4467318367734885E-010
  -2.1400000000000002E-002    -1.5958660084319916E-010
  -2.0549999999999999E-002    -1.6033950137876259E-010
  -1.9699999999999995E-002    -1.4395030023431343E-010
  -1.8850000000000006E-002    -1.0878278199266135E-010
  -1.8000000000000002E-002    -5.5189814718397200E-011
  -1.7149999999999999E-002     1.4011674749771565E-011
  -1.6299999999999995E-002     9.3372952725693081E-011
  -1.5450000000000005E-002     1.7504990732541793E-010
  -1.4600000000000002E-002     2.4947236039462211E-010
  -1.3749999999999998E-002     3.0639710875765836E-010
  -1.2899999999999995E-002     3.3622204736252028E-010
  -1.2050000000000005E-002     3.3138469821098033E-010
  -1.1200000000000002E-002     2.8764393544878519E-010
  -1.0349999999999998E-002     2.0504988871923540E-010
  -9.5000000000000084E-003     8.8441990424518492E-011
  -8.6500000000000049E-003    -5.2628389647282372E-011
  -7.8000000000000014E-003    -2.0458619657076886E-010
  -6.9499999999999978E-003    -3.5109241027322428E-010
  -6.1000000000000082E-003    -4.7476492021050373E-010
  -5.2500000000000047E-003    -5.5918574735682945E-010
  -4.4000000000000011E-003    -5.9096862339154684E-010
  -3.5499999999999976E-003    -5.6163189866864426E-010
  -2.7000000000000079E-003    -4.6902020062418249E-010
  -1.8500000000000044E-003    -3.1805112964569939E-010
  -1.0000000000000009E-003    -1.2063679749975514E-010
  -1.4999999999999736E-004     1.0526880728516562E-010
   6.9999999999999230E-004     3.3742023787140242E-010
   1.5499999999999958E-003     5.5163361147397737E-010
   2.3999999999999994E-003     7.2444939453288615E-010
   3.2500000000000029E-003     8.3576424677485653E-010
   4.0999999999999925E-003     8.7109935716194256E-010
   4.9499999999999961E-003     8.2323726028615914E-010
   5.7999999999999996E-003     6.9306455931415450E-010
   6.6499999999999893E-003     4.8957385089039198E-010
   7.5000000000000067E-003     2.2908689307314786E-010
   8.3499999999999963E-003    -6.6169970210349353E-011
   9.1999999999999860E-003    -3.6997453163303939E-010
   1.0050000000000003E-002    -6.5434390907432925E-010
   1.0899999999999993E-002    -8.9195208603823966E-010
   1.1750000000000010E-002    -1.0585986481333131E-009
   1.2600000000000000E-002    -1.1355790094608001E-009
   1.3449999999999990E-002    -1.1117715735923405E-009
   1.4300000000000007E-002    -9.8520742481386219E-010
   1.5149999999999997E-002    -7.6386548834510249E-010
   1.5999999999999986E-002    -4.6546232733430119E-010
   1.6850000000000004E-002    -1.1610245723083832E-010
   1.7699999999999994E-002     2.5217785706150507E-010
   1.8549999999999983E-002     6.0474304732518872E-010
   1.9400000000000001E-002     9.0814283973668966E-010
   2.0249999999999990E-002     1.1338067900572361E-009
   2.1100000000000008E-002     1.2610938677318190E-009
   2.1949999999999997E-002     1.2792600405915121E-009
   2.2799999999999987E-002     1.1881157970118776E-009
   2.3650000000000004E-002     9.9741307065644619E-010
   2.4499999999999994E-002     7.2523134893687698E-010
   2.5349999999999984E-002     3.9577482310156968E-010
   2.6200000000000001E-002     3.7005805840988892E-011
   2.7049999999999991E-002    -3.2157421390794170E-010
   2.7900000000000008E-002    -6.5086995908922180E-010
   2.8749999999999998E-002    -9.2392586520656739E-010
   2.9599999999999987E-002    -1.1176172869142822E-009
   3.0450000000000005E-002    -1.2144492790220183E-009
   3.1299999999999994E-002    -1.2044742342305335E-009
   3.2149999999999984E-002    -1.0871099299098444E-009
   3.3000000000000002E-002    -8.7243107467104597E-010
   3.3849999999999991E-002    -5.8140287566586826E-010
   3.4700000000000009E-002    -2.4458971915999909E-010
   3.5549999999999998E-002     1.0085984243370031E-010
   3.6399999999999988E-002     4.1575856439518780E-010
   3.7250000000000005E-002     6.6432529163916388E-010
   3.8099999999999995E-002     8.1957031751640828E-010
   3.8949999999999985E-002     8.6753940151533729E-010
   3.9800000000000002E-002     8.0949300653608754E-010
   4.0649999999999992E-002     6.6149695409455106E-010
   4.1500000000000009E-002     4.5146238009166481E-010
   4.2349999999999999E-002     2.1424170400106564E-010
   4.3199999999999988E-002    -1.4199884033418460E-011
   4.4050000000000006E-002    -2.0235349449280003E-010
   4.4899999999999995E-002    -3.2743652227055171E-010
   4.5749999999999985E-002    -3.7770882989336896E-010
   4.6600000000000003E-002    -3.5269669901248916E-010
   4.7449999999999992E-002    -2.6167259074569427E-010
   4.8299999999999982E-002    -1.2106294388982333E-010
   4.9149999999999999E-002     4.8457667788591032E-011
   4.9999999999999989E-002     2.2457902375890944E-010
   5.0850000000000006E-002     3.8537654484137006E-010
   5.1699999999999996E-002     5.1077173988683650E-010
   5.2549999999999986E-002     5.8370594551865814E-010
   5.3400000000000003E-002     5.9134629641118043E-010
   5.4249999999999993E-002     5.2650427416055479E-010
   5.5099999999999982E-002     3.8917957523414584E-010
   5.5950000000000000E-002     1.8784427441526645E-010
   5.6799999999999989E-002    -6.0081282909108087E-011
   5.7650000000000007E-002    -3.2909898094129228E-010
   5.8499999999999996E-002    -5.8813705691353688E-010
   5.9349999999999986E-002    -8.0457036431315452E-010
   6.0200000000000004E-002    -9.4918733818230622E-010
   6.1049999999999993E-002    -1.0011755379912860E-009
   6.1899999999999983E-002    -9.5206590166154502E-010
   6.2750000000000000E-002    -8.0771824217954036E-010
   6.3599999999999990E-002    -5.8781061440341233E-010
   6.4450000000000007E-002    -3.2286424722342343E-010
   6.5299999999999997E-002    -4.9362284908839532E-011
   6.6149999999999987E-002     1.9604383828506069E-010
   6.7000000000000004E-002     3.8210163985352877E-010
   6.7849999999999994E-002     4.8725137855830959E-010
   6.8699999999999983E-002     5.0196468674028883E-010
   6.9550000000000001E-002     4.2893241073312668E-010
   7.0399999999999990E-002     2.8136642793535812E-010
   7.1249999999999980E-002     8.0058412356238986E-011
   7.2099999999999997E-002    -1.5004002660213424E-010
   7.2949999999999987E-002    -3.8301694353288106E-010
   7.3800000000000004E-002    -5.9447498363346981E-010
   7.4649999999999994E-002    -7.6311649547743929E-010
   7.5499999999999984E-002    -8.7151531998188851E-010
   7.6350000000000001E-002    -9.0637168397725963E-010
   7.7199999999999991E-002    -8.5853845817370492E-010
   7.8049999999999981E-002    -7.2306370719788470E-010
   7.8899999999999998E-002    -4.9931644769811517E-010
   7.9749999999999988E-002    -1.9107656701872030E-010
   8.0600000000000005E-002     1.9363820585271762E-010
   8.1449999999999995E-002     6.4325818634613738E-010
   8.2299999999999984E-002     1.1441115946104729E-009
   8.3150000000000002E-002     1.6826203607665182E-009
   8.3999999999999991E-002     2.2482555201648593E-009
   8.4849999999999981E-002     2.8368899791204461E-009
   8.5699999999999998E-002     3.4542331486403617E-009
   8.6549999999999988E-002     4.1188958925699761E-009
   8.7400000000000005E-002     4.8648471349159274E-009
   8.8249999999999995E-002     5.7428066787319872E-009
   8.9099999999999985E-002     6.8205496378525573E-009
   8.9950000000000002E-002     8.1823407385857797E-009
   9.0799999999999992E-002     9.9272672863187480E-009
   9.1649999999999981E-002     1.2166797506586150E-008
   9.2499999999999999E-002     1.5021947848033399E-008
   9.3349999999999989E-002     1.8619915116888419E-008
   9.4200000000000006E-002     2.3091179594673423E-008
   9.5049999999999996E-002     2.8567240445986528E-008
   9.5899999999999985E-002     3.5179531411237223E-008
   9.6750000000000003E-002     4.3060776618510829E-008
   9.7599999999999992E-002     5.2348612691813170E-008
   9.8449999999999982E-002     6.3192636141811969E-008
   9.9299999999999999E-002     7.5764245404152537E-008
  0.10014999999999999          9.0268747736610431E-008
  0.10099999999999998          1.0695729440039282E-007
  0.10185000000000000          1.2613912113445428E-007
  0.10269999999999999          1.4818919168975815E-007
  0.10355000000000000          1.7355177793827102E-007
  0.10439999999999999          2.0273863043376039E-007
  0.10524999999999998          2.3632167670868333E-007
  0.10610000000000000          2.7492415586013132E-007
  0.10694999999999999          3.1920879450868048E-007
  0.10779999999999998          3.6986754722371724E-007
  0.10865000000000000          4.2762055334014329E-007
  0.10949999999999999          4.9321352223668496E-007
  0.11035000000000000          5.6742826936564720E-007
  0.11119999999999999          6.5109793052010492E-007
  0.11204999999999998          7.4511114413175603E-007
  0.11290000000000000          8.5043802326854577E-007
  0.11374999999999999          9.6813168964141820E-007
  0.11459999999999998          1.0993325157764691E-006
  0.11545000000000000          1.2452674983758827E-006
  0.11629999999999999          1.4072484206538391E-006
  0.11715000000000000          1.5866415250995596E-006
  0.11799999999999999          1.7848797644999980E-006
  0.11884999999999998          2.0034374523198376E-006
  0.11970000000000000          2.2438301011359973E-006
  0.12054999999999999          2.5076105122299279E-006
  0.12139999999999998          2.7963540948022598E-006
  0.12225000000000000          3.1116560845459188E-006
  0.12309999999999999          3.4551320742338271E-006
  0.12395000000000000          3.8283786364579073E-006
  0.12479999999999999          4.2329743927842452E-006
  0.12564999999999998          4.6704546664921694E-006
  0.12650000000000000          5.1422592030167435E-006
  0.12734999999999999          5.6497294606069686E-006
  0.12819999999999998          6.1940391102148500E-006
  0.12905000000000000          6.7762151169662899E-006
  0.12989999999999999          7.3970551986641952E-006
  0.13074999999999998          8.0571446640236065E-006
  0.13159999999999999          8.7567793418547097E-006
  0.13245000000000001          9.4959118602777661E-006
  0.13329999999999997          1.0274230250532653E-005
  0.13414999999999999          1.1090943972438693E-005
  0.13500000000000001          1.1944933429539049E-005
  0.13584999999999997          1.2834553819015819E-005
  0.13669999999999999          1.3757737834391123E-005
  0.13755000000000001          1.4711870494884604E-005
  0.13839999999999997          1.5693812647892962E-005
  0.13924999999999998          1.6699843805735815E-005
  0.14010000000000000          1.7725620464910489E-005
  0.14094999999999996          1.8766163578670913E-005
  0.14179999999999998          1.9815711493329458E-005
  0.14265000000000000          2.0867906697882653E-005
  0.14350000000000002          2.1915561929943006E-005
  0.14434999999999998          2.2950803579535032E-005
  0.14520000000000000          2.3965092846587330E-005
  0.14605000000000001          2.4949090876121059E-005
  0.14689999999999998          2.5893053788263043E-005
  0.14774999999999999          2.6786456873120828E-005
  0.14860000000000001          2.7618296177927455E-005
  0.14944999999999997          2.8377129567491609E-005
  0.15029999999999999          2.9051093137276117E-005
  0.15115000000000001          2.9628206678175776E-005
  0.15199999999999997          3.0096197443163003E-005
  0.15284999999999999          3.0442530176554281E-005
  0.15370000000000000          3.0654970850768053E-005
  0.15454999999999997          3.0720959955637459E-005
  0.15539999999999998          3.0628604273566845E-005
  0.15625000000000000          3.0366151229161071E-005
  0.15709999999999996          2.9922590114099878E-005
  0.15794999999999998          2.9287825885904617E-005
  0.15880000000000000          2.8452255752347236E-005
  0.15965000000000001          2.7407692348570931E-005
  0.16049999999999998          2.6146979329067592E-005
  0.16134999999999999          2.4664268987804334E-005
  0.16220000000000001          2.2955354626502994E-005
  0.16304999999999997          2.1017420582709134E-005
  0.16389999999999999          1.8849503757625168E-005
  0.16475000000000001          1.6452312268918484E-005
  0.16559999999999997          1.3828917746446560E-005
  0.16644999999999999          1.0984165024294460E-005
  0.16730000000000000          7.9250023507635381E-006
  0.16814999999999997          4.6605492487338283E-006
  0.16899999999999998          1.2021018755489108E-006
  0.16985000000000000         -2.4370928138508336E-006
  0.17069999999999996         -6.2414180658229669E-006
  0.17154999999999998         -1.0193565225773916E-005
  0.17240000000000000         -1.4273749838509999E-005
  0.17325000000000002         -1.8460805690278263E-005
  0.17409999999999998         -2.2731549448398586E-005
  0.17494999999999999         -2.7061327254882973E-005
  0.17580000000000001         -3.1423906914551460E-005
  0.17664999999999997         -3.5791987133889614E-005
  0.17749999999999999         -4.0137186073560313E-005
  0.17835000000000001         -4.4430384730725068E-005
  0.17919999999999997         -4.8641933713565860E-005
  0.18004999999999999         -5.2742113572922061E-005
  0.18090000000000001         -5.6700997200865390E-005
  0.18174999999999997         -6.0489129058039954E-005
  0.18259999999999998         -6.4077588119879880E-005
  0.18345000000000000         -6.7438416468570500E-005
  0.18429999999999996         -7.0544677503804110E-005
  0.18514999999999998         -7.3370891510897180E-005
  0.18600000000000000         -7.5893281007284147E-005
  0.18684999999999996         -7.8089871701121717E-005
  0.18769999999999998         -7.9940903882895408E-005
  0.18855000000000000         -8.1429116750368768E-005
  0.18940000000000001         -8.2539593518161176E-005
  0.19024999999999997         -8.3260149458724855E-005
  0.19109999999999999         -8.3581681075018890E-005
  0.19195000000000001         -8.3497908888323087E-005
  0.19279999999999997         -8.3005657397726515E-005
  0.19364999999999999         -8.2104761905071272E-005
  0.19450000000000001         -8.0798230053709231E-005
  0.19534999999999997         -7.9092060789107683E-005
  0.19619999999999999         -7.6995334542288908E-005
  0.19705000000000000         -7.4520156811626995E-005
  0.19789999999999996         -7.1681008205876524E-005
  0.19874999999999998         -6.8495714368846291E-005
  0.19960000000000000         -6.4984126386535853E-005
  0.20044999999999996         -6.1168625095304492E-005
  0.20129999999999998         -5.7074161938809004E-005
  0.20215000000000000         -5.2727264898650939E-005
  0.20300000000000001         -4.8156132913991653E-005
  0.20384999999999998         -4.3390340256058744E-005
  0.20469999999999999         -3.8460607361283724E-005
  0.20555000000000001         -3.3398342220329685E-005
  0.20639999999999997         -2.8235962861538964E-005
  0.20724999999999999         -2.3005747479536432E-005
  0.20810000000000001         -1.7739988169015311E-005
  0.20894999999999997         -1.2470724105460987E-005
  0.20979999999999999         -7.2300866912749779E-006
  0.21065000000000000         -2.0483275357085049E-006
  0.21149999999999997          3.0441483257081238E-006
  0.21234999999999998          8.0187462784235270E-006
  0.21320000000000000          1.2848142346333010E-005
  0.21404999999999996          1.7507013385164915E-005
  0.21489999999999998          2.1971754843262227E-005
  0.21575000000000000          2.6220878576530080E-005
  0.21659999999999996          3.0235126602191473E-005
  0.21744999999999998          3.3997188284330299E-005
  0.21829999999999999          3.7492563068207172E-005
  0.21915000000000001          4.0708460903489532E-005
  0.21999999999999997          4.3634815072559999E-005
  0.22084999999999999          4.6264099637739888E-005
  0.22170000000000001          4.8590504249866038E-005
  0.22254999999999997          5.0610833761516945E-005
  0.22339999999999999          5.2324128550046065E-005
  0.22425000000000000          5.3731525624378147E-005
  0.22509999999999997          5.4836660786838497E-005
  0.22594999999999998          5.5644934569303888E-005
  0.22680000000000000          5.6163764906229784E-005
  0.22764999999999996          5.6402378139152511E-005
  0.22849999999999998          5.6371531117437959E-005
  0.22935000000000000          5.6083307125173192E-005
  0.23019999999999996          5.5551173932709365E-005
  0.23104999999999998          5.4789552185368170E-005
  0.23190000000000000          5.3813732761814457E-005
  0.23275000000000001          5.2639410108550637E-005
  0.23359999999999997          5.1283065491675834E-005
  0.23444999999999999          4.9761690036335051E-005
  0.23530000000000001          4.8092417764703730E-005
  0.23614999999999997          4.6292773060233039E-005
  0.23699999999999999          4.4380248421966068E-005
  0.23785000000000001          4.2372243924576806E-005
  0.23869999999999997          4.0285868223903889E-005
  0.23954999999999999          3.8137733048796263E-005
  0.24040000000000000          3.5944046143058734E-005
  0.24124999999999996          3.3720230665260170E-005
  0.24209999999999998          3.1481005028971331E-005
  0.24295000000000000          2.9240057779918248E-005
  0.24379999999999996          2.7010270323094500E-005
  0.24464999999999998          2.4803725742516677E-005
  0.24550000000000000          2.2631456022301335E-005
  0.24634999999999996          2.0503588664459402E-005
  0.24719999999999998          1.8429375027611097E-005
  0.24804999999999999          1.6416968712880521E-005
  0.24890000000000001          1.4473724174602978E-005
  0.24974999999999997          1.2605965915979856E-005
  0.25059999999999999          1.0819101825207828E-005
  0.25145000000000001          9.1175244847549222E-006
  0.25229999999999997          7.5048311891758026E-006
  0.25314999999999999          5.9835977357596951E-006
  0.25400000000000000          4.5555358493461465E-006
  0.25484999999999997          3.2216185870095554E-006
  0.25569999999999998          1.9821449502212847E-006
  0.25655000000000000          8.3653848755101231E-007
  0.25739999999999996         -2.1624290217909583E-007
  0.25824999999999998         -1.1778114416018769E-006
  0.25910000000000000         -2.0501604910102747E-006
  0.25994999999999996         -2.8358351794049383E-006
  0.26079999999999998         -3.5378239853710084E-006
  0.26164999999999999         -4.1591950958701913E-006
  0.26249999999999996         -4.7035511340571622E-006
  0.26334999999999997         -5.1745489910042205E-006
  0.26419999999999999         -5.5761281360888473E-006
  0.26505000000000001         -5.9122758550832188E-006
  0.26589999999999997         -6.1872041777331240E-006
  0.26674999999999999         -6.4049974485158047E-006
  0.26760000000000000         -6.5698090348201512E-006
  0.26844999999999997         -6.6856859734477442E-006
  0.26929999999999998         -6.7567580592092221E-006
  0.27015000000000000         -6.7870275342582914E-006
  0.27099999999999996         -6.7804425419839681E-006
  0.27184999999999998         -6.7409298555421770E-006
  0.27270000000000000         -6.6722832656181640E-006
  0.27354999999999996         -6.5780851042916673E-006
  0.27439999999999998         -6.4618392903016688E-006
  0.27524999999999999         -6.3267476063691090E-006
  0.27609999999999996         -6.1756936747408300E-006
  0.27694999999999997         -6.0113705139161811E-006
  0.27779999999999999         -5.8361707880094610E-006
  0.27865000000000001         -5.6523180967468134E-006
  0.27949999999999997         -5.4618586187542665E-006
  0.28034999999999999         -5.2667186817848982E-006
  0.28120000000000001         -5.0687106152731168E-006
  0.28204999999999997         -4.8695043687255196E-006
  0.28289999999999998         -4.6705760853085590E-006
  0.28375000000000000         -4.4731651755524639E-006
  0.28459999999999996         -4.2783301277997040E-006
  0.28544999999999998         -4.0869620875360289E-006
  0.28630000000000000         -3.8996949214809028E-006
  0.28714999999999996         -3.7170814357544184E-006
  0.28799999999999998         -3.5395779746749894E-006
  0.28885000000000000         -3.3676601897916462E-006
  0.28969999999999996         -3.2017533727231618E-006
  0.29054999999999997         -3.0423109441389028E-006
  0.29139999999999999         -2.8897407767775400E-006
  0.29224999999999995         -2.7443216547945509E-006
  0.29309999999999997         -2.6062505793490135E-006
  0.29394999999999999         -2.4755356998063875E-006
  0.29480000000000001         -2.3520722325562567E-006
  0.29564999999999997         -2.2356406743823847E-006
  0.29649999999999999         -2.1259802979329878E-006
  0.29735000000000000         -2.0228603812098892E-006
  0.29819999999999997         -1.9260779046548115E-006
  0.29904999999999998         -1.8355302402752491E-006
  0.29990000000000000         -1.7511497616269827E-006
  0.30074999999999996         -1.6729185554451789E-006
  0.30159999999999998         -1.6007597535042127E-006
  0.30245000000000000         -1.5345511863130988E-006
  0.30329999999999996         -1.4740481774661713E-006
  0.30414999999999998         -1.4189507751085470E-006
  0.30499999999999999         -1.3688414873331823E-006
  0.30584999999999996         -1.3233020826346911E-006
  0.30669999999999997         -1.2819256440146137E-006
  0.30754999999999999         -1.2443092619625065E-006
  0.30840000000000001         -1.2100883938936295E-006
  0.30924999999999997         -1.1789523254003614E-006
  0.31009999999999999         -1.1505584968032397E-006
  0.31095000000000000         -1.1245832659687230E-006
  0.31179999999999997         -1.1006869879473024E-006
  0.31264999999999998         -1.0785211695116843E-006
  0.31350000000000000         -1.0577324186920335E-006
  0.31434999999999996         -1.0379731219295772E-006
  0.31519999999999998         -1.0189452843706134E-006
  0.31605000000000000         -1.0003614398528702E-006
  0.31689999999999996         -9.8195450318555898E-007
  0.31774999999999998         -9.6346667399058437E-007
  0.31859999999999999         -9.4464577196111340E-007
  0.31944999999999996         -9.2522760445890257E-007
  0.32029999999999997         -9.0497019277192992E-007
  0.32114999999999999         -8.8370165191624503E-007
  0.32199999999999995         -8.6131656728346082E-007
  0.32284999999999997         -8.3781449551472531E-007
  0.32369999999999999         -8.1326376461371726E-007
  0.32455000000000001         -7.8782672816442886E-007
  0.32539999999999997         -7.6169904867120478E-007
  0.32624999999999998         -7.3503633418156060E-007
  0.32710000000000000         -7.0794608920417786E-007
  0.32794999999999996         -6.8044415375881177E-007
  0.32879999999999998         -6.5249185169650088E-007
  0.32965000000000000         -6.2400955549142894E-007
  0.33049999999999996         -5.9493869099670438E-007
  0.33134999999999998         -5.6528819262226731E-007
  0.33220000000000000         -5.3515865485783465E-007
  0.33304999999999996         -5.0474635315969400E-007
  0.33389999999999997         -4.7431288183257313E-007
  0.33474999999999999         -4.4412686107143679E-007
  0.33559999999999995         -4.1444863205501915E-007
  0.33644999999999997         -3.8544863470038356E-007
  0.33729999999999999         -3.5721902101888636E-007
  0.33815000000000001         -3.2976929792480620E-007
  0.33899999999999997         -3.0305853539732441E-007
  0.33984999999999999         -2.7704316907516296E-007
  0.34070000000000000         -2.5169654291851407E-007
  0.34154999999999996         -2.2705452683045838E-007
  0.34239999999999998         -2.0320627056551440E-007
  0.34325000000000000         -1.8028413237109485E-007