 -0.12000000000000000          0.0000000000000000
 -0.11914999999999999          0.0000000000000000
 -0.11830000000000000          0.0000000000000000
 -0.11745000000000000          0.0000000000000000
 -0.11660000000000000          0.0000000000000000
 -0.11574999999999999          0.0000000000000000
 -0.11490000000000000          7.6957455235325765E-025
 -0.11405000000000000          1.2054055839685993E-023
 -0.11320000000000000          8.9945516662621377E-023
 -0.11234999999999999          4.3371456558247062E-022
 -0.11150000000000000          1.5214197662717911E-021
 -0.11065000000000000          4.0927612208572795E-021
 -0.10979999999999999          8.5351760295785095E-021
 -0.10894999999999999          1.3152488757776910E-020
 -0.10810000000000000          1.1343476198425416E-020
 -0.10725000000000000         -1.0798135402090526E-020
 -0.10639999999999999         -7.2927467242683399E-020
 -0.10554999999999999         -1.9035515257579887E-019
 -0.10470000000000000         -3.5304320319813766E-019
 -0.10385000000000000         -4.9832991011812896E-019
 -0.10299999999999999         -4.9251952888799842E-019
 -0.10214999999999999         -1.4486519661241923E-019
 -0.10130000000000000          7.2487084222758187E-019
 -0.10045000000000000          2.1641321210492954E-018
  -9.9599999999999994E-002     3.9456948273765663E-018
  -9.8750000000000004E-002     5.4792339524795472E-018
  -9.7900000000000001E-002     5.8633877065101655E-018
  -9.7049999999999997E-002     4.1312608569123594E-018
  -9.6199999999999994E-002    -3.4479202068163255E-019
  -9.5349999999999990E-002    -7.4337335690740003E-018
  -9.4500000000000001E-002    -1.6028199289321249E-017
  -9.3649999999999997E-002    -2.4210013042938880E-017
  -9.2799999999999994E-002    -2.9809496320438434E-017
  -9.1950000000000004E-002    -3.1115540918485835E-017
  -9.1100000000000000E-002    -2.7297552265527679E-017
  -9.0249999999999997E-002    -1.8138715370858889E-017
  -8.9399999999999993E-002    -3.0554184023534977E-018
  -8.8549999999999990E-002     1.9995040690462412E-017
  -8.7700000000000000E-002     5.4562442046555082E-017
  -8.6849999999999997E-002     1.0354062843938408E-016
  -8.5999999999999993E-002     1.6453462315151637E-016
  -8.5150000000000003E-002     2.2427847022031835E-016
  -8.4300000000000000E-002     2.5559226577286524E-016
  -8.3449999999999996E-002     2.2126996864335927E-016
  -8.2600000000000007E-002     8.7811038457401236E-017
  -8.1749999999999989E-002    -1.5253832980129428E-016
  -8.0900000000000000E-002    -4.5940650577455959E-016
  -8.0049999999999996E-002    -7.3517193345727967E-016
  -7.9199999999999993E-002    -8.4348935791319483E-016
  -7.8350000000000003E-002    -6.6244231510084576E-016
  -7.7499999999999999E-002    -1.6312313847951163E-016
  -7.6649999999999996E-002     5.1619893308815002E-016
  -7.5800000000000006E-002     1.0460405859701390E-015
  -7.4949999999999989E-002     9.7703142786038673E-016
  -7.4099999999999999E-002    -7.3921454833440067E-017
  -7.3249999999999996E-002    -2.1541572936343705E-015
  -7.2399999999999992E-002    -4.7168167774511918E-015
  -7.1550000000000002E-002    -6.5161864691869232E-015
  -7.0699999999999999E-002    -5.8014860030464438E-015
  -6.9849999999999995E-002    -8.8493981935656498E-016
  -6.9000000000000006E-002     8.9807349671393018E-015
  -6.8149999999999988E-002     2.2660159648643481E-014
  -6.7299999999999999E-002     3.6526044060550820E-014
  -6.6449999999999995E-002     4.4624696515401544E-014
  -6.5599999999999992E-002     3.9925987074522008E-014
  -6.4750000000000002E-002     1.6643918433757927E-014
  -6.3899999999999998E-002    -2.6840098939506905E-014
  -6.3049999999999995E-002    -8.5360858074800257E-014
  -6.2199999999999998E-002    -1.4581092978871887E-013
  -6.1350000000000002E-002    -1.8846043587746843E-013
  -6.0499999999999998E-002    -1.9119578246719208E-013
  -5.9650000000000002E-002    -1.3617081875403120E-013
  -5.8799999999999998E-002    -1.7303850389666371E-014
  -5.7950000000000002E-002     1.5374412340180662E-013
  -5.7099999999999998E-002     3.4562717832311698E-013
  -5.6249999999999994E-002     5.1119899999508317E-013
  -5.5400000000000005E-002     5.9744934968564367E-013
  -5.4550000000000001E-002     5.5968790227603634E-013
  -5.3699999999999998E-002     3.7631523867140582E-013
  -5.2849999999999994E-002     5.9561809657846656E-014
  -5.2000000000000005E-002    -3.4195094967871800E-013
  -5.1150000000000001E-002    -7.5095457334830062E-013
  -5.0299999999999997E-002    -1.0786002726370956E-012
  -4.9449999999999994E-002    -1.2466061239633450E-012
  -4.8600000000000004E-002    -1.2080110327729476E-012
  -4.7750000000000001E-002    -9.5983190886880318E-013
  -4.6899999999999997E-002    -5.4308926943645080E-013
  -4.6049999999999994E-002    -2.9733591445278388E-014
  -4.5200000000000004E-002     4.9929280925325904E-013
  -4.4350000000000001E-002     9.7704349208386260E-013
  -4.3499999999999997E-002     1.3658712319830911E-012
  -4.2649999999999993E-002     1.6587814880001248E-012
  -4.1800000000000004E-002     1.8659198279238497E-012
  -4.0950000000000000E-002     1.9917015439996385E-012
  -4.0099999999999997E-002     2.0131052423195454E-012
  -3.9249999999999993E-002     1.8708966716630804E-012
  -3.8400000000000004E-002     1.4818602328503657E-012
  -3.7550000000000000E-002     7.7212442866328271E-013
  -3.6699999999999997E-002    -2.7799085476498714E-013
  -3.5850000000000007E-002    -1.5948560106741556E-012
  -3.5000000000000003E-002    -2.9973264091914367E-012
  -3.4150000000000000E-002    -4.2209864501035528E-012
  -3.3299999999999996E-002    -4.9818008932113725E-012
  -3.2450000000000007E-002    -5.0643663298758105E-012
  -3.1600000000000003E-002    -4.4067145362237739E-012
  -3.0750000000000000E-002    -3.1485983866687473E-012
  -2.9899999999999996E-002    -1.6171014851421153E-012
  -2.9050000000000006E-002    -2.4166720643161817E-013
  -2.8200000000000003E-002     5.8444596250198646E-013
  -2.7349999999999999E-002     6.5615823854228543E-013
  -2.6499999999999996E-002     6.9486598423385469E-014
  -2.5650000000000006E-002    -7.5241240196118525E-013
  -2.4800000000000003E-002    -1.1449344213910770E-012
  -2.3949999999999999E-002    -3.8895108039564510E-013
  -2.3099999999999996E-002     2.0485515046162473E-012
  -2.2250000000000006E-002     6.2927851193540637E-012
  -2.1400000000000002E-002     1.1934050355283042E-011
  -2.0549999999999999E-002     1.8047626153663576E-011
  -1.9699999999999995E-002     2.3369146002181063E-011
  -1.8850000000000006E-002     2.6582496098712458E-011
  -1.8000000000000002E-002     2.6636338643726025E-011
  -1.7149999999999999E-002     2.2990483748983349E-011
  -1.6299999999999995E-002     1.5712566979298702E-011
  -1.5450000000000005E-002     5.3949497928094107E-012
  -1.4600000000000002E-002    -7.0741178716713260E-012
  -1.3749999999999998E-002    -2.0794309241728612E-011
  -1.2899999999999995E-002    -3.5074458289814201E-011
  -1.2050000000000005E-002    -4.9489470939928309E-011
  -1.1200000000000002E-002    -6.3728641152660001E-011
  -1.0349999999999998E-002    -7.7273048732978748E-011
  -9.5000000000000084E-003    -8.9018572977349821E-011
  -8.6500000000000049E-003    -9.7006338373550372E-011
  -7.8000000000000014E-003    -9.8414354388285513E-011
  -6.9499999999999978E-003    -8.9897978041422236E-011
  -6.1000000000000082E-003    -6.8259878489076172E-011
  -5.2500000000000047E-003    -3.1315749880970174E-011
  -4.4000000000000011E-003     2.1262354831773418E-011
  -3.5499999999999976E-003     8.7364610442290573E-011
  -2.7000000000000079E-003     1.6231115446841022E-010
  -1.8500000000000044E-003     2.3923990402103349E-010
  -1.0000000000000009E-003     3.0994336888174000E-010
  -1.4999999999999736E-004     3.6595738261787770E-010
   6.9999999999999230E-004     3.9963831638517010E-010
   1.5499999999999958E-003     4.0498203582670048E-010
   2.3999999999999994E-003     3.7803258166920545E-010
   3.2500000000000029E-003     3.1686875190752593E-010
   4.0999999999999925E-003     2.2129402916554938E-010
   4.9499999999999961E-003     9.2446451510252230E-011
   5.7999999999999996E-003    -6.7454242817013041E-011
   6.6499999999999893E-003    -2.5507962881540624E-010
   7.5000000000000067E-003    -4.6567882724473619E-010
   8.3499999999999963E-003    -6.9261074000147335E-010
   9.1999999999999860E-003    -9.2694796784016178E-010
   1.0050000000000003E-002    -1.1573757768131802E-009
   1.0899999999999993E-002    -1.3705325508808864E-009
   1.1750000000000010E-002    -1.5517759180736657E-009
   1.2600000000000000E-002    -1.6861906915017476E-009
   1.3449999999999990E-002    -1.7595489252819841E-009
   1.4300000000000007E-002    -1.7588971419390969E-009
   1.5149999999999997E-002    -1.6725512710891876E-009
   1.5999999999999986E-002    -1.4894457575282820E-009
   1.6850000000000004E-002    -1.1979931701649069E-009
   1.7699999999999994E-002    -7.8475016587265540E-010
   1.8549999999999983E-002    -2.3328432412291008E-010
   1.9400000000000001E-002     4.7649673835105920E-010
   2.0249999999999990E-002     1.3684052949652146E-009
   2.1100000000000008E-002     2.4695565307878477E-009
   2.1949999999999997E-002     3.8098072522825946E-009
   2.2799999999999987E-002     5.4214696135555159E-009
   2.3650000000000004E-002     7.3396852494067035E-009
   2.4499999999999994E-002     9.6037434459194167E-009
   2.5349999999999984E-002     1.2259321926143403E-008
   2.6200000000000001E-002     1.5361435111112886E-008
   2.7049999999999991E-002     1.8977801253599447E-008
   2.7900000000000008E-002     2.3192106371790938E-008
   2.8749999999999998E-002     2.8107058957283973E-008
   2.9599999999999987E-002     3.3847168288468597E-008
   3.0450000000000005E-002     4.0561523301826281E-008
   3.1299999999999994E-002     4.8426651817209981E-008
   3.2149999999999984E-002     5.7650386468319951E-008
   3.3000000000000002E-002     6.8476368240666712E-008
   3.3849999999999991E-002     8.1189810764545425E-008
   3.4700000000000009E-002     9.6123796941602557E-008
   3.5549999999999998E-002     1.1366607783206514E-007
   3.6399999999999988E-002     1.3426564129440786E-007
   3.7250000000000005E-002     1.5843877226546690E-007
   3.8099999999999995E-002     1.8677450362284432E-007
   3.8949999999999985E-002     2.1994002545757176E-007
   3.9800000000000002E-002     2.5868551356006880E-007
   4.0649999999999992E-002     3.0385062564907770E-007
   4.1500000000000009E-002     3.5637259703894557E-007
   4.2349999999999999E-002     4.1729612526828645E-007
   4.3199999999999988E-002     4.8778653285995409E-007
   4.4050000000000006E-002     5.6914387122959557E-007
   4.4899999999999995E-002     6.6281965203443862E-007
   4.5749999999999985E-002     7.7043534175687174E-007
   4.6600000000000003E-002     8.9380043378976929E-007
   4.7449999999999992E-002     1.0349318640068991E-006
   4.8299999999999982E-002     1.1960715289285630E-006
   4.9149999999999999E-002     1.3797048056932982E-006
   4.9999999999999989E-002     1.5885763907450972E-006
   5.0850000000000006E-002     1.8257075900065930E-006
   5.1699999999999996E-002     2.0944139456162481E-006
   5.2549999999999986E-002     2.3983147202449785E-006
   5.3400000000000003E-002     2.7413491429827569E-006
   5.4249999999999993E-002     3.1277837476134360E-006
   5.5099999999999982E-002     3.5622283826353368E-006
   5.5950000000000000E-002     4.0496343219787479E-006
   5.6799999999999989E-002     4.5953015258462302E-006
   5.7650000000000007E-002     5.2048859586715176E-006
   5.8499999999999996E-002     5.8843908196921197E-006
   5.9349999999999986E-002     6.6401658011489282E-006
   6.0200000000000004E-002     7.4789015172827752E-006
   6.1049999999999993E-002     8.4076242907044413E-006
   6.1899999999999983E-002     9.4336647163968725E-006
   6.2750000000000000E-002     1.0564645708452047E-005
   6.3599999999999990E-002     1.1808449336691134E-005
   6.4450000000000007E-002     1.3173179896922909E-005
   6.5299999999999997E-002     1.4667108431581246E-005
   6.6149999999999987E-002     1.6298632774376563E-005
   6.7000000000000004E-002     1.8076192332814593E-005
   6.7849999999999994E-002     2.0008180358052781E-005
   6.8699999999999983E-002     2.2102903232744138E-005
   6.9550000000000001E-002     2.4368420737713395E-005
   7.0399999999999990E-002     2.6812501755966982E-005
   7.1249999999999980E-002     2.9442445877096543E-005
   7.2099999999999997E-002     3.2264950394863219E-005
   7.2949999999999987E-002     3.5286001793672240E-005
   7.3800000000000004E-002     3.8510676238475538E-005
   7.4649999999999994E-002     4.1942984523999014E-005
   7.5499999999999984E-002     4.5585697234241403E-005
   7.6350000000000001E-002     4.9440164042059709E-005
   7.7199999999999991E-002     5.3506124273800207E-005
   7.8049999999999981E-002     5.7781432810918122E-005
   7.8899999999999998E-002     6.2262064069571406E-005
   7.9749999999999988E-002     6.6941702081843842E-005
   8.0600000000000005E-002     7.1811671386530946E-005
   8.1449999999999995E-002     7.6860748135109628E-005
   8.2299999999999984E-002     8.2074947427264463E-005
   8.3150000000000002E-002     8.7437452909098283E-005
   8.3999999999999991E-002     9.2928221396649063E-005
   8.4849999999999981E-002     9.8524141702123092E-005
   8.5699999999999998E-002     1.0419868714213775E-004
   8.6549999999999988E-002     1.0992198132871124E-004
   8.7400000000000005E-002     1.1566063033001613E-004
   8.8249999999999995E-002     1.2137767661665648E-004
   8.9099999999999985E-002     1.2703275896106870E-004
   8.9950000000000002E-002     1.3258192549341441E-004
   9.0799999999999992E-002     1.3797793886412206E-004
   9.1649999999999981E-002     1.4317016681359806E-004
   9.2499999999999999E-002     1.4810514690572141E-004
   9.3349999999999989E-002     1.5272633657982166E-004
   9.4200000000000006E-002     1.5697476051885177E-004
   9.5049999999999996E-002     1.6078912875313114E-004
   9.5899999999999985E-002     1.6410624815387686E-004
   9.6750000000000003E-002     1.6686180300210741E-004
   9.7599999999999992E-002     1.6899041618780261E-004
   9.8449999999999982E-002     1.7042644665686633E-004
   9.9299999999999999E-002     1.7110450252193909E-004
  0.10014999999999999          1.7096016463869285E-004
  0.10099999999999998          1.6993049086478688E-004
  0.10185000000000000          1.6795503737623361E-004
  0.10269999999999999          1.6497633240311884E-004
  0.10355000000000000          1.6094069457812146E-004
  0.10439999999999999          1.5579923588384515E-004
  0.10524999999999998          1.4950835502460397E-004
  0.10610000000000000          1.4203090201199046E-004
  0.10694999999999999          1.3333646974571025E-004
  0.10779999999999998          1.2340263651622175E-004
  0.10865000000000000          1.1221539722809532E-004
  0.10949999999999999          9.9769950403713045E-005
  0.11035000000000000          8.6071218944001949E-005
  0.11119999999999999          7.1134205301497591E-005
  0.11204999999999998          5.4984807511035497E-005
  0.11290000000000000          3.7659996455846919E-005
  0.11374999999999999          1.9208086909369285E-005
  0.11459999999999998         -3.1139961203021194E-007
  0.11545000000000000         -2.0826647410914666E-005
  0.11629999999999999         -4.2254904979233532E-005
  0.11715000000000000         -6.4502180338421700E-005
  0.11799999999999999         -8.7463101181628030E-005
  0.11884999999999998         -1.1102189642317481E-004
  0.11970000000000000         -1.3505308414852544E-004
  0.12054999999999999         -1.5942178387367298E-004
  0.12139999999999998         -1.8398492757866041E-004
  0.12225000000000000         -2.0859203008077959E-004
  0.12309999999999999         -2.3308657637533437E-004
  0.12395000000000000         -2.5730691569661343E-004
  0.12479999999999999         -2.8108779936244658E-004
  0.12564999999999998         -3.0426161510595804E-004
  0.12650000000000000         -3.2666004219435868E-004
  0.12734999999999999         -3.4811541906909840E-004
  0.12819999999999998         -3.6846232202321176E-004
  0.12905000000000000         -3.8753928073402810E-004
  0.12989999999999999         -4.0519028125477889E-004
  0.13074999999999998         -4.2126649154605088E-004
  0.13159999999999999         -4.3562751183983002E-004
  0.13245000000000001         -4.4814316893746501E-004
  0.13329999999999997         -4.5869464558539807E-004
  0.13414999999999999         -4.6717604480315834E-004
  0.13500000000000001         -4.7349572991478448E-004
  0.13584999999999997         -4.7757691965609440E-004
  0.13669999999999999         -4.7935901525015460E-004
  0.13755000000000001         -4.7879834680449084E-004
  0.13839999999999997         -4.7586890144968308E-004
  0.13924999999999998         -4.7056263650211691E-004
  0.14010000000000000         -4.6288960446876716E-004
  0.14094999999999996         -4.5287833851665442E-004
  0.14179999999999998         -4.4057577856774078E-004
  0.14265000000000000         -4.2604657222358440E-004
  0.14350000000000002         -4.0937308601517240E-004
  0.14434999999999998         -3.9065410683858484E-004
  0.14520000000000000         -3.7000488426410313E-004
  0.14605000000000001         -3.4755533885052201E-004
  0.14689999999999998         -3.2344891354408396E-004
  0.14774999999999999         -2.9784186722410489E-004
  0.14860000000000001         -2.7090116017474195E-004
  0.14944999999999997         -2.4280334644502665E-004
  0.15029999999999999         -2.1373253586955918E-004
  0.15115000000000001         -1.8387913219746033E-004
  0.15199999999999997         -1.5343795652352727E-004
  0.15284999999999999         -1.2260614961909631E-004
  0.15370000000000000         -9.1581471553416638E-005
  0.15454999999999997         -6.0560977225643664E-005
  0.15539999999999998         -2.9738715424088422E-005
  0.15625000000000000          6.9602753678776492E-007
  0.15709999999999996          3.0560323311681286E-005
  0.15794999999999998          5.9678242759986924E-005
  0.15880000000000000          8.7883625414363905E-005
  0.15965000000000001          1.1502054208521677E-004
  0.16049999999999998          1.4094445077619911E-004
  0.16134999999999999          1.6552387496543368E-004
  0.16220000000000001          1.8864033974601914E-004
  0.16304999999999997          2.1018937560976028E-004
  0.16389999999999999          2.3008182067291391E-004
  0.16475000000000001          2.4824363615676582E-004
  0.16559999999999997          2.6461579582895043E-004
  0.16644999999999999          2.7915524419580546E-004
  0.16730000000000000          2.9183363645759287E-004
  0.16814999999999997          3.0263796579497673E-004
  0.16899999999999998          3.1157016617815576E-004
  0.16985000000000000          3.1864573714000338E-004
  0.17069999999999996          3.2389388931617594E-004
  0.17154999999999998          3.2735634232320174E-004
  0.17240000000000000          3.2908637517907452E-004
  0.17325000000000002          3.2914841288529044E-004
  0.17409999999999998          3.2761622310249186E-004
  0.17494999999999999          3.2457266691100089E-004
  0.17580000000000001          3.2010784213166478E-004
  0.17664999999999997          3.1431846356387111E-004
  0.17749999999999999          3.0730613386593367E-004
  0.17835000000000001          2.9917673568599320E-004
  0.17919999999999997          2.9003922165560865E-004
  0.18004999999999999          2.8000422061447958E-004
  0.18090000000000001          2.6918307971784635E-004
  0.18174999999999997          2.5768681385584678E-004
  0.18259999999999998          2.4562531072360751E-004
  0.18345000000000000          2.3310615435722211E-004
  0.18429999999999996          2.2023411308112512E-004
  0.18514999999999998          2.0711014626514885E-004
  0.18600000000000000          1.9383084287778572E-004
  0.18684999999999996          1.8048785102047022E-004
  0.18769999999999998          1.6716727892619393E-004
  0.18855000000000000          1.5394942801718223E-004
  0.18940000000000001          1.4090828354122717E-004
  0.19024999999999997          1.2811153887853403E-004
  0.19109999999999999          1.1562024052662856E-004
  0.19195000000000001          1.0348880039139342E-004
  0.19279999999999997          9.1765127901474025E-005
  0.19364999999999999          8.0490409082524932E-005
  0.19450000000000001          6.9699501539443519E-005
  0.19534999999999997          5.9420992439102616E-005
  0.19619999999999999          4.9677500735644571E-005
  0.19705000000000000          4.0485781712941193E-005
  0.19789999999999996          3.1857336481127497E-005
  0.19874999999999998          2.3798431403177156E-005
  0.19960000000000000          1.6310526204523776E-005
  0.20044999999999996          9.3907310637024167E-006
  0.20129999999999998          3.0321972200031290E-006
  0.20215000000000000         -2.7755596260361116E-006
  0.20300000000000001         -8.0462019284119853E-006
  0.20384999999999998         -1.2796087713311541E-005
  0.20469999999999999         -1.7044010301933983E-005
  0.20555000000000001         -2.0810691539269417E-005
  0.20639999999999997         -2.4118459908765353E-005
  0.20724999999999999         -2.6991032462301669E-005
  0.20810000000000001         -2.9452982879255298E-005
  0.20894999999999997         -3.1529488872827964E-005
  0.20979999999999999         -3.3246137029064704E-005
  0.21065000000000000         -3.4628653554158337E-005
  0.21149999999999997         -3.5702587978244433E-005
  0.21234999999999998         -3.6493104193874595E-005
  0.21320000000000000         -3.7024880465292739E-005
  0.21404999999999996         -3.7321867024716864E-005
  0.21489999999999998         -3.7407244673009287E-005
  0.21575000000000000         -3.7303226274288584E-005
  0.21659999999999996         -3.7030995962835332E-005
  0.21744999999999998         -3.6610729967593218E-005
  0.21829999999999999         -3.6061449160606453E-005
  0.21915000000000001         -3.5401002418477929E-005
  0.21999999999999997         -3.4646146426208906E-005
  0.22084999999999999         -3.3812315019323961E-005
  0.22170000000000001         -3.2913884978745832E-005
  0.22254999999999997         -3.1963925616627886E-005
  0.22339999999999999         -3.0974318544277366E-005
  0.22425000000000000         -2.9955819843506506E-005
  0.22509999999999997         -2.8918073163373685E-005
  0.22594999999999998         -2.7869615423247801E-005
  0.22680000000000000         -2.6818043623247236E-005
  0.22764999999999996         -2.5769980990504317E-005
  0.22849999999999998         -2.4731237023846779E-005
  0.22935000000000000         -2.3706882191742627E-005
  0.23019999999999996         -2.2701270976808329E-005
  0.23104999999999998         -2.1718076987384801E-005
  0.23190000000000000         -2.0760369286842751E-005
  0.23275000000000001         -1.9830605696651744E-005
  0.23359999999999997         -1.8930761348321136E-005
  0.23444999999999999         -1.8062267716374661E-005
  0.23530000000000001         -1.7226148276444068E-005
  0.23614999999999997         -1.6423054962236627E-005
  0.23699999999999999         -1.5653285697853563E-005
  0.23785000000000001         -1.4916861053126816E-005
  0.23869999999999997         -1.4213634451096681E-005
  0.23954999999999999         -1.3543254183185202E-005
  0.24040000000000000         -1.2905245001738418E-005
  0.24124999999999996         -1.2299042358677140E-005
  0.24209999999999998         -1.1724014509349817E-005
  0.24295000000000000         -1.1179405330516835E-005
  0.24379999999999996         -1.0664416698932655E-005
  0.24464999999999998         -1.0178149874565227E-005
  0.24550000000000000         -9.7196719248133876E-006
  0.24634999999999996         -9.2879662898250015E-006
  0.24719999999999998         -8.8820236723079754E-006
  0.24804999999999999         -8.5008481660985392E-006
  0.24890000000000001         -8.1434794690741069E-006
  0.24974999999999997         -7.8090459084613070E-006
  0.25059999999999999         -7.4967638958483907E-006
  0.25145000000000001         -7.2059625059160932E-006
  0.25229999999999997         -6.9360346241543849E-006
  0.25314999999999999         -6.6864859995680830E-006
  0.25400000000000000         -6.4568351983016637E-006
  0.25484999999999997         -6.2466464028690685E-006
  0.25569999999999998         -6.0555144254138747E-006
  0.25655000000000000         -5.8830488446929754E-006
  0.25739999999999996         -5.7289212551488728E-006
  0.25824999999999998         -5.5928549631257815E-006
  0.25910000000000000         -5.4747147997873615E-006
  0.25994999999999996         -5.3744840622160399E-006
  0.26079999999999998         -5.2922896410939564E-006
  0.26164999999999999         -5.2284463710587802E-006
  0.26249999999999996         -5.1834065636451100E-006
  0.26334999999999997         -5.1577925737536103E-006
  0.26419999999999999         -5.1523276896590253E-006
  0.26505000000000001         -5.1678968270799410E-006
  0.26589999999999997         -5.2054938578969109E-006
  0.26674999999999999         -5.2662872794898070E-006
  0.26760000000000000         -5.3515988278338868E-006
  0.26844999999999997         -5.4629515657543104E-006
  0.26929999999999998         -5.6020793897896606E-006
  0.27015000000000000         -5.7709318111974023E-006
  0.27099999999999996         -5.9716725471711485E-006
  0.27184999999999998         -6.2066449623410039E-006
  0.27270000000000000         -6.4783637160391352E-006
  0.27354999999999996         -6.7894739752246858E-006
  0.27439999999999998         -7.1427194551260472E-006
  0.27524999999999999         -7.5409291705470111E-006
  0.27609999999999996         -7.9869880944361730E-006
  0.27694999999999997         -8.4838355066207674E-006
  0.27779999999999999         -9.0344227349325188E-006
  0.27865000000000001         -9.6417431810872929E-006
  0.27949999999999997         -1.0308738591000069E-005
  0.28034999999999999         -1.1038311486101521E-005
  0.28120000000000001         -1.1833261217445076E-005
  0.28204999999999997         -1.2696189044068738E-005
  0.28289999999999998         -1.3629486993972937E-005
  0.28375000000000000         -1.4635227320633181E-005
  0.28459999999999996         -1.5715113191537375E-005
  0.28544999999999998         -1.6870401083495056E-005
  0.28630000000000000         -1.8101814246762712E-005
  0.28714999999999996         -1.9409538767418886E-005
  0.28799999999999998         -2.0793106254510841E-005
  0.28885000000000000         -2.2251305717535340E-005
  0.28969999999999996         -2.3782175991007405E-005
  0.29054999999999997         -2.5382924097351431E-005
  0.29139999999999999         -2.7049817512321738E-005
  0.29224999999999995         -2.8778168504302760E-005
  0.29309999999999997         -3.0562255640833267E-005
  0.29394999999999999         -3.2395250194797481E-005
  0.29480000000000001         -3.4269181570323894E-005
  0.29564999999999997         -3.6174899060615306E-005
  0.29649999999999999         -3.8102017513414637E-005
  0.29735000000000000         -4.0038959711224579E-005
  0.29819999999999997         -4.1972860020921920E-005
  0.29904999999999998         -4.3889599919104302E-005
  0.29990000000000000         -4.5773872666067532E-005
  0.30074999999999996         -4.7609068986266634E-005
  0.30159999999999998         -4.9377403264651074E-005
  0.30245000000000000         -5.1060014145331752E-005
  0.30329999999999996         -5.2636929184347875E-005
  0.30414999999999998         -5.4087280242339336E-005
  0.30499999999999999         -5.5389252964681172E-005
  0.30584999999999996         -5.6520423053387211E-005
  0.30669999999999997         -5.7457807946353405E-005
  0.30754999999999999         -5.8178011999523084E-005
  0.30840000000000001         -5.8657468891270352E-005
  0.30924999999999997         -5.8872776778017215E-005
  0.31009999999999999         -5.8800743172247259E-005
  0.31095000000000000         -5.8418716664142177E-005
  0.31179999999999997         -5.7704757646758159E-005
  0.31264999999999998         -5.6638036316590538E-005
  0.31350000000000000         -5.5198898752344082E-005
  0.31434999999999996         -5.3369321947796205E-005
  0.31519999999999998         -5.1133168634650006E-005
  0.31605000000000000         -4.8476310237956867E-005
  0.31689999999999996         -4.5387140703046502E-005
  0.31774999999999998         -4.1856805016123803E-005
  0.31859999999999999         -3.7879580893627146E-005
  0.31944999999999996         -3.3452939742192128E-005
  0.32029999999999997         -2.8577954741119372E-005
  0.32114999999999999         -2.3259385721624466E-005
  0.32199999999999995         -1.7505879774915631E-005
  0.32284999999999997         -1.1330089314266957E-005
  0.32369999999999999         -4.7487833226285819E-006
  0.32455000000000001          2.2170279670181871E-006
  0.32539999999999997          9.5421294732141081E-006
  0.32624999999999998          1.7197085113804837E-005
  0.32710000000000000          2.5148361007382059E-005
  0.32794999999999996          3.3358131099589824E-005
  0.32879999999999998          4.1784855074171569E-005
  0.32965000000000000          5.0383121326843851E-005
  0.33049999999999996          5.9104081128616990E-005
  0.33134999999999998          6.7895824738032736E-005
  0.33220000000000000          7.6703700789379706E-005
  0.33304999999999996          8.5470707504455338E-005
  0.33389999999999997          9.4138005750321117E-005
  0.33474999999999999          1.0264533706127530E-004
  0.33559999999999995          1.1093146471868736E-004
  0.33644999999999997          1.1893486839837607E-004
  0.33729999999999999          1.2659423699535059E-004
  0.33815000000000001          1.3384886005748738E-004
  0.33899999999999997          1.4063937380690618E-004
  0.33984999999999999          1.4690843399646337E-004
  0.34070000000000000          1.5260110551920173E-004
  0.34154999999999996          1.5766568708100993E-004
  0.34239999999999998          1.6205416783637782E-004
  0.34325000000000000          1.6572281947379325E-004