 -0.12000000000000000          0.0000000000000000
 -0.11914999999999999          0.0000000000000000
 -0.11830000000000000          0.0000000000000000
 -0.11745000000000000          0.0000000000000000
 -0.11660000000000000          0.0000000000000000
 -0.11574999999999999          0.0000000000000000
 -0.11490000000000000          0.0000000000000000
 -0.11405000000000000          0.0000000000000000
 -0.11320000000000000          2.3225176040935652E-020
 -0.11234999999999999          3.1082028331640456E-019
 -0.11150000000000000          2.1009061732078623E-018
 -0.11065000000000000          9.4177643360813450E-018
 -0.10979999999999999          3.0755184666417881E-017
 -0.10894999999999999          7.4607426923482295E-017
 -0.10810000000000000          1.2474359798971176E-016
 -0.10725000000000000          7.7318620473620027E-017
 -0.10639999999999999         -3.5925262344659916E-016
 -0.10554999999999999         -1.7353313101575567E-015
 -0.10470000000000000         -4.7178009885031957E-015
 -0.10385000000000000         -9.4328008292804149E-015
 -0.10299999999999999         -1.4021094022995789E-014
 -0.10214999999999999         -1.2530512361897848E-014
 -0.10130000000000000          6.7974491632743772E-015
 -0.10045000000000000          6.0448288764544832E-014
  -9.9599999999999994E-002     1.6230006498482889E-013
  -9.8750000000000004E-002     3.0710436419479752E-013
  -9.7900000000000001E-002     4.4552927793406457E-013
  -9.7049999999999997E-002     4.5910282094778874E-013
  -9.6199999999999994E-002     1.5347047610003250E-013
  -9.5349999999999990E-002    -7.0375195167133339E-013
  -9.4500000000000001E-002    -2.2762035410941777E-012
  -9.3649999999999997E-002    -4.4783870027842485E-012
  -9.2799999999999994E-002    -6.7573174882906844E-012
  -9.1950000000000004E-002    -7.9255816235166826E-012
  -9.1100000000000000E-002    -6.1815934817881879E-012
  -9.0249999999999997E-002     5.3893068931228891E-013
  -8.9399999999999993E-002     1.3795838885629749E-011
  -8.8549999999999990E-002     3.3516115118942301E-011
  -8.7700000000000000E-002     5.6754829293459319E-011
  -8.6849999999999997E-002     7.6789637109761146E-011
  -8.5999999999999993E-002     8.3100138883300802E-011
  -8.5150000000000003E-002     6.2728928693897338E-011
  -8.4300000000000000E-002     3.2737552029009499E-012
  -8.3449999999999996E-002    -1.0264230498061261E-010
  -8.2600000000000007E-002    -2.5203722994994638E-010
  -8.1749999999999989E-002    -4.2640646049244841E-010
  -8.0900000000000000E-002    -5.8807428970319488E-010
  -8.0049999999999996E-002    -6.7961516331927161E-010
  -7.9199999999999993E-002    -6.2806448608511251E-010
  -7.8350000000000003E-002    -3.5568645155506579E-010
  -7.7499999999999999E-002     2.0124076854570976E-010
  -7.6649999999999996E-002     1.0653491899029500E-009
  -7.5800000000000006E-002     2.1851580439420519E-009
  -7.4949999999999989E-002     3.4027052880663855E-009
  -7.4099999999999999E-002     4.4335894714318634E-009
  -7.3249999999999996E-002     4.8752258248064962E-009
  -7.2399999999999992E-002     4.2590225743829742E-009
  -7.1550000000000002E-002     2.1549613330949017E-009
  -7.0699999999999999E-002    -1.6786682130634887E-009
  -6.9849999999999995E-002    -7.1291615140121020E-009
  -6.9000000000000006E-002    -1.3596485847992557E-008
  -6.8149999999999988E-002    -1.9952721487266708E-008
  -6.7299999999999999E-002    -2.4642084059206025E-008
  -6.6449999999999995E-002    -2.5934156999402960E-008
  -6.5599999999999992E-002    -2.2289744139663988E-008
  -6.4750000000000002E-002    -1.2746599481451396E-008
  -6.3899999999999998E-002     2.7931082448558096E-009
  -6.3049999999999995E-002     2.3468040927678347E-008
  -6.2199999999999998E-002     4.7572384291769956E-008
  -6.1350000000000002E-002     7.2788329952272402E-008
  -6.0499999999999998E-002     9.6355751529561640E-008
  -5.9650000000000002E-002     1.1499263984397518E-007
  -5.8799999999999998E-002     1.2449888249636023E-007
  -5.7950000000000002E-002     1.1921703288735718E-007
  -5.7099999999999998E-002     9.1803748120475036E-008
  -5.6249999999999994E-002     3.3943899063462931E-008
  -5.5400000000000005E-002    -6.1442908325422753E-008
  -5.4550000000000001E-002    -1.9640103178547731E-007
  -5.3699999999999998E-002    -3.6320438280187644E-007
  -5.2849999999999994E-002    -5.4022277391988112E-007
  -5.2000000000000005E-002    -6.9050796420018701E-007
  -5.1150000000000001E-002    -7.6513661613096986E-007
  -5.0299999999999997E-002    -7.1230503004396024E-007
  -4.9449999999999994E-002    -4.9128034094489194E-007
  -4.8600000000000004E-002    -8.8050729676013337E-008
  -4.7750000000000001E-002     4.7226215737537711E-007
  -4.6899999999999997E-002     1.1214968739207881E-006
  -4.6049999999999994E-002     1.7566282937182165E-006
  -4.5200000000000004E-002     2.2599258597836402E-006
  -4.4350000000000001E-002     2.5263256962735987E-006
  -4.3499999999999997E-002     2.4893462899239581E-006
  -4.2649999999999993E-002     2.1355913212299619E-006
  -4.1800000000000004E-002     1.5006168371797074E-006
  -4.0950000000000000E-002     6.4549596662514799E-007
  -4.0099999999999997E-002    -3.7790416220216291E-007
  -3.9249999999999993E-002    -1.5575578122218430E-006
  -3.8400000000000004E-002    -2.9299716861568907E-006
  -3.7550000000000000E-002    -4.5540906837766635E-006
  -3.6699999999999997E-002    -6.4499734722265470E-006
  -3.5850000000000007E-002    -8.5182303982319638E-006
  -3.5000000000000003E-002    -1.0470599323977376E-005
  -3.4150000000000000E-002    -1.1807430418562307E-005
  -3.3299999999999996E-002    -1.1869810156643860E-005
  -3.2450000000000007E-002    -9.9720518293338617E-006
  -3.1600000000000003E-002    -5.5906373698033580E-006
  -3.0750000000000000E-002     1.4411469637805941E-006
  -2.9899999999999996E-002     1.0795919460160335E-005
  -2.9050000000000006E-002     2.1624454385559711E-005
  -2.8200000000000003E-002     3.2655910749839224E-005
  -2.7349999999999999E-002     4.2398093742308007E-005
  -2.6499999999999996E-002     4.9368584886678944E-005
  -2.5650000000000006E-002     5.2271552301774391E-005
  -2.4800000000000003E-002     5.0057561485132693E-005
  -2.3949999999999999E-002     4.1861397484983449E-005
  -2.3099999999999996E-002     2.6889592739925671E-005
  -2.2250000000000006E-002     4.3874617768280291E-006
  -2.1400000000000002E-002    -2.6173794633955437E-005
  -2.0549999999999999E-002    -6.4613350323577723E-005
  -1.9699999999999995E-002    -1.0931173960165677E-004
  -1.8850000000000006E-002    -1.5644706953273394E-004
  -1.8000000000000002E-002    -1.9953186984683890E-004
  -1.7149999999999999E-002    -2.2961254676459711E-004
  -1.6299999999999995E-002    -2.3637801721485815E-004
  -1.5450000000000005E-002    -2.1016876368653583E-004
  -1.4600000000000002E-002    -1.4454771134371779E-004
  -1.3749999999999998E-002    -3.8793448996611585E-005
  -1.2899999999999995E-002     1.0046484137353332E-004
  -1.2050000000000005E-002     2.5915047014294252E-004
  -1.1200000000000002E-002     4.1748744103307770E-004
  -1.0349999999999998E-002     5.5335601335669050E-004
  -9.5000000000000084E-003     6.4644937545085867E-004
  -8.6500000000000049E-003     6.8205855795638588E-004
  -7.8000000000000014E-003     6.5330969850955470E-004
  -6.9499999999999978E-003     5.6110257688499849E-004
  -6.1000000000000082E-003     4.1177367076697879E-004
  -5.2500000000000047E-003     2.1337948269820582E-004
  -4.4000000000000011E-003    -2.7842031357823058E-005
  -3.5499999999999976E-003    -3.0911930012695140E-004
  -2.7000000000000079E-003    -6.2969110448904636E-004
  -1.8500000000000044E-003    -9.8610646056764267E-004
  -1.0000000000000009E-003    -1.3654944100923959E-003
  -1.4999999999999736E-004    -1.7391490926198102E-003
   6.9999999999999230E-004    -2.0592702602832023E-003
   1.5499999999999958E-003    -2.2612027668610264E-003
   2.3999999999999994E-003    -2.2721080043305824E-003
   3.2500000000000029E-003    -2.0249782352800639E-003
   4.0999999999999925E-003    -1.4749747482726860E-003
   4.9499999999999961E-003    -6.1385535752814420E-004
   5.7999999999999996E-003     5.2166849121937505E-004
   6.6499999999999893E-003     1.8503405225669789E-003
   7.5000000000000067E-003     3.2557694108070983E-003
   8.3499999999999963E-003     4.6023527027666562E-003
   9.1999999999999860E-003     5.7531987961010247E-003
   1.0050000000000003E-002     6.5850418022080567E-003
   1.0899999999999993E-002     6.9964003348915969E-003
   1.1750000000000010E-002     6.9079878840789324E-003
   1.2600000000000000E-002     6.2577356263812632E-003
   1.3449999999999990E-002     4.9954053877951411E-003
   1.4300000000000007E-002     3.0826926104414775E-003
   1.5149999999999997E-002     5.0323637106615415E-004
   1.5999999999999986E-002    -2.7166062283575233E-003
   1.6850000000000004E-002    -6.4800162507700669E-003
   1.7699999999999994E-002    -1.0593001461120195E-002
   1.8549999999999983E-002    -1.4748710484711146E-002
   1.9400000000000001E-002    -1.8531944214032061E-002
   2.0249999999999990E-002    -2.1448779981280645E-002
   2.1100000000000008E-002    -2.2980171071842415E-002
   2.1949999999999997E-002    -2.2651741975070208E-002
   2.2799999999999987E-002    -2.0107359448782870E-002
   2.3650000000000004E-002    -1.5172438522261413E-002
   2.4499999999999994E-002    -7.8954591958671043E-003
   2.5349999999999984E-002     1.4385051978778388E-003
   2.6200000000000001E-002     1.2321583783945841E-002
   2.7049999999999991E-002     2.4057582444571193E-002
   2.7900000000000008E-002     3.5807684026123866E-002
   2.8749999999999998E-002     4.6638383139129228E-002
   2.9599999999999987E-002     5.5566993760158834E-002
   3.0450000000000005E-002     6.1605677458337144E-002
   3.1299999999999994E-002     6.3809933953111589E-002
   3.2149999999999984E-002     6.1339841071934534E-002
   3.3000000000000002E-002     5.3539519656699910E-002
   3.3849999999999991E-002     4.0035094883519196E-002
   3.4700000000000009E-002     2.0841837233100902E-002
   3.5549999999999998E-002    -3.5360782199449353E-003
   3.6399999999999988E-002    -3.2035239204527721E-002
   3.7250000000000005E-002    -6.3013826990859501E-002
   3.8099999999999995E-002    -9.4299729798076506E-002
   3.8949999999999985E-002   -0.12331204561373151
   3.9800000000000002E-002   -0.14724900661135348
   4.0649999999999992E-002   -0.16332572252385286
   4.1500000000000009E-002   -0.16903536981448813
   4.2349999999999999E-002   -0.16240566683233051
   4.3199999999999988E-002   -0.14222433200232779
   4.4050000000000006E-002   -0.10821260152437107
   4.4899999999999995E-002    -6.1133205293034516E-002
   4.5749999999999985E-002    -2.8264909461792401E-003
   4.6600000000000003E-002     6.3826024788537980E-002
   4.7449999999999992E-002    0.13500875442026364
   4.8299999999999982E-002    0.20614471152578717
   4.9149999999999999E-002    0.27212910554689446
   4.9999999999999989E-002    0.32761531163705365
   5.0850000000000006E-002    0.36734525263812834
   5.1699999999999996E-002    0.38650970798279183
   5.2549999999999986E-002    0.38112207081746774
   5.3400000000000003E-002    0.34838563707075237
   5.4249999999999993E-002    0.28702864291320090
   5.5099999999999982E-002    0.19758278798440937
   5.5950000000000000E-002     8.2577295056890654E-002
   5.6799999999999989E-002    -5.3378234837635916E-002
   5.7650000000000007E-002   -0.20364609245970469
   5.8499999999999996E-002   -0.35976746771954993
   5.9349999999999986E-002   -0.51183427698608097
   6.0200000000000004E-002   -0.64902287366266009
   6.1049999999999993E-002   -0.76027187287463804
   6.1899999999999983E-002   -0.83506441088639638
   6.2750000000000000E-002   -0.86426035125332534
   6.3599999999999990E-002   -0.84090924849801330
   6.4450000000000007E-002   -0.76096951930185375
   6.5299999999999997E-002   -0.62386247264075645
   6.6149999999999987E-002   -0.43280667712217347
   6.7000000000000004E-002   -0.19489212700173675
   6.7849999999999994E-002     7.9109935407268489E-002
   6.8699999999999983E-002    0.37519956506502189
   6.9550000000000001E-002    0.67681466590848161
   7.0399999999999990E-002    0.96568521540819852
   7.1249999999999980E-002     1.2228058542594011
   7.2099999999999997E-002     1.4294859450744843
   7.2949999999999987E-002     1.5684071167179947
   7.3800000000000004E-002     1.6246336026882120
   7.4649999999999994E-002     1.5865094641196664
   7.5499999999999984E-002     1.4463893232397933
   7.6350000000000001E-002     1.2010956286012859
   7.7199999999999991E-002    0.85209621697355820
   7.8049999999999981E-002    0.40531156447257050
   7.8899999999999998E-002   -0.12942447671055160
   7.9749999999999988E-002   -0.73927040777402797
   8.0600000000000005E-002    -1.4095774347636505
   8.1449999999999995E-002    -2.1253057094993970
   8.2299999999999984E-002    -2.8726070458533277
   8.3150000000000002E-002    -3.6403770197058711
   8.3999999999999991E-002    -4.4218073652169751
   8.4849999999999981E-002    -5.2157265295171582
   8.5699999999999998E-002    -6.0278450423278125
   8.6549999999999988E-002    -6.8716622920646477
   8.7400000000000005E-002    -7.7691798990857084
   8.8249999999999995E-002    -8.7513133846624740
   8.9099999999999985E-002    -9.8580137463491493
   8.9950000000000002E-002    -11.138117338769858
   9.0799999999999992E-002    -12.649038338569975
   9.1649999999999981E-002    -14.456267660518902
   9.2499999999999999E-002    -16.632683454137123
   9.3349999999999989E-002    -19.258178068785760
   9.4200000000000006E-002    -22.419235495994208
   9.5049999999999996E-002    -26.209110270667239
   9.5899999999999985E-002    -30.727662593130866
   9.6750000000000003E-002    -36.083050725206228
   9.7599999999999992E-002    -42.392314297121992
   9.8449999999999982E-002    -49.783923222864694
   9.9299999999999999E-002    -58.399286925317575
  0.10014999999999999         -68.396257793257121
  0.10099999999999998         -79.951517608023252
  0.10185000000000000         -93.263672074162258
  0.10269999999999999         -108.55726475342254
  0.10355000000000000         -126.08550196184791
  0.10439999999999999         -146.13406983960596
  0.10524999999999998         -169.02501891092592
  0.10610000000000000         -195.11954145466490
  0.10694999999999999         -224.82113527482556
  0.10779999999999998         -258.57886109639935
  0.10865000000000000         -296.89043773356013
  0.10949999999999999         -340.30260988692032
  0.11035000000000000         -389.41408033944828
  0.11119999999999999         -444.87487285829280
  0.11204999999999998         -507.38887360343267
  0.11290000000000000         -577.71323276430905
  0.11374999999999999         -656.65515145769905
  0.11459999999999998         -745.07770722861164
  0.11545000000000000         -843.89246399483989
  0.11629999999999999         -954.06377969671030
  0.11715000000000000         -1076.6036057303370
  0.11799999999999999         -1212.5696502288699
  0.11884999999999998         -1363.0656865353694
  0.11970000000000000         -1529.2308392205828
  0.12054999999999999         -1712.2485842870904
  0.12139999999999998         -1913.3272326853312
  0.12225000000000000         -2133.7035718955403
  0.12309999999999999         -2374.6264390725369
  0.12395000000000000         -2637.3491716493263
  0.12479999999999999         -2923.1201856653261
  0.12564999999999998         -3233.1602443471361
  0.12650000000000000         -3568.6380557578113
  0.12734999999999999         -3930.6617731726828
  0.12819999999999998         -4320.2384146308950
  0.12905000000000000         -4738.2504521410519
  0.12989999999999999         -5185.4221797060291
  0.13074999999999998         -5662.2931543156128
  0.13159999999999999         -6169.1575123611374
  0.13245000000000001         -6706.0525201411219
  0.13329999999999997         -7272.7382516374882
  0.13414999999999999         -7868.5822321050227
  0.13500000000000001         -8492.6107341001516
  0.13584999999999997         -9143.4038296027102
  0.13669999999999999         -9819.0724066568509
  0.13755000000000001         -10517.251557072776
  0.13839999999999997         -11234.998804688330
  0.13924999999999998         -11968.797149006579
  0.14010000000000000         -12714.540602293826
  0.14094999999999996         -13467.481863956828
  0.14179999999999998         -14222.185800595375
  0.14265000000000000         -14972.519859818156
  0.14350000000000002         -15711.673538130648
  0.14434999999999998         -16432.079227149166
  0.14520000000000000         -17125.450697707482
  0.14605000000000001         -17782.848154869509
  0.14689999999999998         -18394.570065207241
  0.14774999999999999         -18950.214961190948
  0.14860000000000001         -19438.784358894096
  0.14944999999999997         -19848.582241317421
  0.15029999999999999         -20167.545978088652
  0.15115000000000001         -20382.980096367974
  0.15199999999999997         -20482.063544669971
  0.15284999999999999         -20451.584011879982
  0.15370000000000000         -20278.322852227753
  0.15454999999999997         -19949.090715281571
  0.15539999999999998         -19450.747584534529
  0.15625000000000000         -18770.928582149831
  0.15709999999999996         -17897.434858329725
  0.15794999999999998         -16819.062970774954
  0.15880000000000000         -15525.393522860788
  0.15965000000000001         -14007.313989188644
  0.16049999999999998         -12256.917871506235
  0.16134999999999999         -10268.122275577365
  0.16220000000000001         -8036.3001235030033
  0.16304999999999997         -5559.1042013826072
  0.16389999999999999         -2836.4972915408380
  0.16475000000000001          129.66118984908530
  0.16559999999999997          3334.4438443609720
  0.16644999999999999          6770.2502879725025
  0.16730000000000000          10426.653186209525
  0.16814999999999997          14290.847284099831
  0.16899999999999998          18346.287974275921
  0.16985000000000000          22573.905086753173
  0.17069999999999996          26951.205624714272
  0.17154999999999998          31452.913200097290
  0.17240000000000000          36050.589785931319
  0.17325000000000002          40712.778905621686
  0.17409999999999998          45405.765711177170
  0.17494999999999999          50092.766618016467
  0.17580000000000001          54735.355138409104
  0.17664999999999997          59292.522175414131
  0.17749999999999999          63722.303102649581
  0.17835000000000001          67980.836392711557
  0.17919999999999997          72023.917382533051
  0.18004999999999999          75806.946053519205
  0.18090000000000001          79284.982877159782
  0.18174999999999997          82414.260583541225
  0.18259999999999998          85151.786694986760
  0.18345000000000000          87456.563154095085
  0.18429999999999996          89289.364577430606
  0.18514999999999998          90613.528697758622
  0.18600000000000000          91396.292057925981
  0.18684999999999996          91608.192721616608
  0.18769999999999998          91224.154860606417
  0.18855000000000000          90223.700200142484
  0.18940000000000001          88591.387832914188
  0.19024999999999997          86316.754375090502
  0.19109999999999999          83395.697568875024
  0.19195000000000001          79829.796941190405
  0.19279999999999997          75626.755224833745
  0.19364999999999999          70800.591906912727
  0.19450000000000001          65371.299949320171
  0.19534999999999997          59365.426055441581
  0.19619999999999999          52815.373968805907
  0.19705000000000000          45759.296066919400
  0.19789999999999996          38241.267311450654
  0.19874999999999998          30310.480279539042
  0.19960000000000000          22020.805316418278
  0.20044999999999996          13430.312204243975
  0.20129999999999998          4601.2116638237985
  0.20215000000000000         -4401.3450564886407
  0.20300000000000001         -13509.695767249490
  0.20384999999999998         -22654.036886892100
  0.20469999999999999         -31764.215194266148
  0.20555000000000001         -40769.232654459382
  0.20639999999999997         -49598.649136080050
  0.20724999999999999         -58183.156556759721
  0.20810000000000001         -66455.614809793216
  0.20894999999999997         -74350.913332413707
  0.20979999999999999         -81807.947030413430
  0.21065000000000000         -88769.792052946897
  0.21149999999999997         -95183.360645388559
  0.21234999999999998         -101001.70050526803
  0.21320000000000000         -106182.89176863014
  0.21404999999999996         -110691.20386803805
  0.21489999999999998         -114497.53481512277
  0.21575000000000000         -117579.03755979076
  0.21659999999999996         -119919.86136453788
  0.21744999999999998         -121511.44465025765
  0.21829999999999999         -122351.95480263227
  0.21915000000000001         -122446.52710449803
  0.21999999999999997         -121806.66821860490
  0.22084999999999999         -120450.34745869480
  0.22170000000000001         -118402.34144931537
  0.22254999999999997         -115691.88832296248
  0.22339999999999999         -112354.01288174387
  0.22425000000000000         -108428.75194544414
  0.22509999999999997         -103959.06492132462
  0.22594999999999998         -98993.245950136930
  0.22680000000000000         -93581.714155482900
  0.22764999999999996         -87776.644348834219
  0.22849999999999998         -81632.936075922684
  0.22935000000000000         -75206.050509521694
  0.23019999999999996         -68551.682857612584
  0.23104999999999998         -61724.927581931493
  0.23190000000000000         -54780.427395938175
  0.23275000000000001         -47771.264849187450
  0.23359999999999997         -40748.257997737150
  0.23444999999999999         -33760.067475856056
  0.23530000000000001         -26852.174796573876
  0.23614999999999997         -20066.697212931609
  0.23699999999999999         -13442.331400648973
  0.23785000000000001         -7013.3597944325165
  0.23869999999999997         -809.95780797059615
  0.23954999999999999          5141.6830976177362
  0.24040000000000000          10819.812222194745
  0.24124999999999996          16207.036566431818
  0.24209999999999998          21289.725408889251
  0.24295000000000000          26058.686854612235
  0.24379999999999996          30508.523470378419
  0.24464999999999998          34637.664155601808
  0.24550000000000000          38447.892355814198
  0.24634999999999996          41943.953814257824
  0.24719999999999998          45133.617417659232
  0.24804999999999999          48026.929620895651
  0.24890000000000001          50635.961635409563
  0.24974999999999997          52974.260382549553
  0.25059999999999999          55056.498563284084
  0.25145000000000001          56898.147802638909
  0.25229999999999997          58515.066615937103
  0.25314999999999999          59922.921693618177
  0.25400000000000000          61137.419148240078
  0.25484999999999997          62173.277114742545
  0.25569999999999998          63044.531090632241
  0.25655000000000000          63763.698591655113
  0.25739999999999996          64342.013007417743
  0.25824999999999998          64788.969597740368
  0.25910000000000000          65112.529687325296
  0.25994999999999996          65318.162868936182
  0.26079999999999998          65409.875058753358
  0.26164999999999999          65389.647347397477
  0.26249999999999996          65257.088758529600
  0.26334999999999997          65010.333379063013
  0.26419999999999999          64645.700296593815
  0.26505000000000001          64157.904645969713
  0.26589999999999997          63540.205469405744
  0.26674999999999999          62785.159065815533
  0.26760000000000000          61883.889526893581
  0.26844999999999997          60826.928529873294
  0.26929999999999998          59605.393593696652
  0.27015000000000000          58209.578780284239
  0.27099999999999996          56630.445701923076
  0.27184999999999998          54859.575044801524
  0.27270000000000000          52889.551856716695
  0.27354999999999996          50714.075967533150
  0.27439999999999998          48328.142449399777
  0.27524999999999999          45728.868595779895
  0.27609999999999996          42914.870544869795
  0.27694999999999997          39887.345522149146
  0.27779999999999999          36649.738468203264
  0.27865000000000001          33207.997752989730
  0.27949999999999997          29570.568589795737
  0.28034999999999999          25748.605818903066
  0.28120000000000001          21755.648449980887
  0.28204999999999997          17608.002717885727
  0.28289999999999998          13324.301854788750
  0.28375000000000000          8925.5301709246378
  0.28459999999999996          4434.9626039503219
  0.28544999999999998         -122.20515320258755
  0.28630000000000000         -4719.1026700855464
  0.28714999999999996         -9327.2897826290045
  0.28799999999999998         -13917.200770999227
  0.28885000000000000         -18458.376474674580
  0.28969999999999996         -22919.921313093564
  0.29054999999999997         -27270.729270089902
  0.29139999999999999         -31479.905437713118
  0.29224999999999995         -35517.226679746112
  0.29309999999999997         -39353.150827183228
  0.29394999999999999         -42959.534117686082
  0.29480000000000001         -46309.821990413562
  0.29564999999999997         -49379.293504263573
  0.29649999999999999         -52145.947593749013
  0.29735000000000000         -54589.486382667921
  0.29819999999999997         -56692.907503996714
  0.29904999999999998         -58441.934882217771
  0.29990000000000000         -59825.581135492437
  0.30074999999999996         -60835.969522411368
  0.30159999999999998         -61468.466027505201
  0.30245000000000000         -61721.828395977209
  0.30329999999999996         -61597.857800405152
  0.30414999999999998         -61102.129601387089
  0.30499999999999999         -60243.532837539693
  0.30584999999999996         -59033.483034887002
  0.30669999999999997         -57487.339377898097
  0.30754999999999999         -55622.198501524428
  0.30840000000000001         -53458.504895085454
  0.30924999999999997         -51018.653844485569
  0.31009999999999999         -48326.979560522457
  0.31095000000000000         -45409.533989660129
  0.31179999999999997         -42293.443855055943
  0.31264999999999998         -39007.298765764666
  0.31350000000000000         -35580.360643831387
  0.31434999999999996         -32041.830106761401
  0.31519999999999998         -28421.767036915749
  0.31605000000000000         -24749.734551022411
  0.31689999999999996         -21054.939832348467
  0.31774999999999998         -17366.182750210355
  0.31859999999999999         -13710.665791389205
  0.31944999999999996         -10115.105023828954
  0.32029999999999997         -6604.0717456812445
  0.32114999999999999         -3200.7063046605272
  0.32199999999999995          74.055540329449968
  0.32284999999999997          3201.0481449584131
  0.32369999999999999          6163.5822235852465
  0.32455000000000001          8947.0570637318160
  0.32539999999999997          11539.183840249123
  0.32624999999999998          13929.974791499180
  0.32710000000000000          16111.607795153510
  0.32794999999999996          18078.514853369001
  0.32879999999999998          19827.377544272484
  0.32965000000000000          21356.825621411146
  0.33049999999999996          22667.551800107805
  0.33134999999999998          23762.151155402691
  0.33220000000000000          24644.962584641155
  0.33304999999999996          25321.849909232027
  0.33389999999999997          25800.250675640440
  0.33474999999999999          26088.925415518919
  0.33559999999999995          26197.599600033911
  0.33644999999999997          26137.167452090591
  0.33729999999999999          25919.168376129433
  0.33815000000000001          25555.956112163243
  0.33899999999999997          25060.206963764576
  0.33984999999999999          24445.017839997250
  0.34070000000000000          23723.510721584142
  0.34154999999999996          22908.831493668342
  0.34239999999999998          22013.981439040672
  0.34325000000000000          21051.475343454520
  0.34409999999999996          20033.543408621237
  0.34494999999999998          18971.925235369516
  0.34580000000000000          17877.814866752411
  0.34664999999999996          16761.790789197934
  0.34749999999999998          15633.870739442915
  0.34834999999999999          14503.405370412811
  0.34919999999999995          13378.975445570784
  0.35004999999999997          12268.480987123741
  0.35089999999999999          11178.871628577612
  0.35174999999999995          10116.373237387188
  0.35259999999999997          9086.3273229178285
  0.35344999999999999          8093.4375723048406
  0.35430000000000000          7141.3633759126869
  0.35514999999999997          6233.2542811319363
  0.35599999999999998          5371.5582004837688
  0.35685000000000000          4558.1075856531561
  0.35769999999999996          3794.0141978594079
  0.35854999999999998          3080.0315026954459
  0.35940000000000000          2416.3608727483620
  0.36024999999999996          1802.7428412498030
  0.36109999999999998          1238.5733288376800
  0.36194999999999999          722.95307766232668
  0.36279999999999996          254.62178910676329
  0.36364999999999997         -167.85424536487852
  0.36449999999999999         -546.23697835302869
  0.36534999999999995         -882.48081616169861
  0.36619999999999997         -1178.7058491200066
  0.36704999999999999         -1437.3146196809896
  0.36790000000000000         -1660.6926105024243
  0.36874999999999997         -1851.3342663965752
  0.36959999999999998         -2011.5598624988861
  0.37045000000000000         -2143.7048216986400
  0.37129999999999996         -2249.8651689602129
  0.37214999999999998         -2332.0364369870667
  0.37300000000000000         -2392.1088860120694