 -0.12000000000000000          0.0000000000000000
 -0.11914999999999999          0.0000000000000000
 -0.11830000000000000         -2.6362338023830387E-015
 -0.11745000000000000         -1.3365023152783539E-014
 -0.11660000000000000         -3.0348711735031047E-014
 -0.11574999999999999         -3.0668336252228272E-014
 -0.11490000000000000          3.2135871204555313E-014
 -0.11405000000000000          2.0920168594366000E-013
 -0.11320000000000000          5.2282280972854751E-013
 -0.11234999999999999          9.4027920645020381E-013
 -0.11150000000000000          1.3768068149136971E-012
 -0.11065000000000000          1.7307194388910314E-012
 -0.10979999999999999          1.9294869934982162E-012
 -0.10894999999999999          1.9563953951583747E-012
 -0.10810000000000000          1.8437489361629028E-012
 -0.10725000000000000          1.6483660240124709E-012
 -0.10639999999999999          1.4387559596910202E-012
 -0.10554999999999999          1.2973776338931077E-012
 -0.10470000000000000          1.2861466646638272E-012
 -0.10385000000000000          1.2907256878601176E-012
 -0.10299999999999999          7.1429811896765818E-013
 -0.10214999999999999         -1.8438737881370543E-012
 -0.10130000000000000         -8.5876961398432779E-012
 -0.10045000000000000         -2.1788843299311842E-011
  -9.9599999999999994E-002    -4.2132530299910139E-011
  -9.8750000000000004E-002    -6.6544266975125682E-011
  -9.7900000000000001E-002    -8.6643969082293997E-011
  -9.7049999999999997E-002    -8.9439073183448476E-011
  -9.6199999999999994E-002    -6.1525965482871268E-011
  -9.5349999999999990E-002     3.3708377747665930E-012
  -9.4500000000000001E-002     9.5959671559858581E-011
  -9.3649999999999997E-002     1.8661670503315487E-010
  -9.2799999999999994E-002     2.2946966403839581E-010
  -9.1950000000000004E-002     1.7835490690778981E-010
  -9.1100000000000000E-002     1.2557357313662399E-011
  -9.0249999999999997E-002    -2.3644512422540568E-010
  -8.9399999999999993E-002    -4.7132673681134739E-010
  -8.8549999999999990E-002    -5.4281658912953892E-010
  -8.7700000000000000E-002    -2.9852114879322008E-010
  -8.6849999999999997E-002     3.4027714069507084E-010
  -8.5999999999999993E-002     1.2982040833660121E-009
  -8.5150000000000003E-002     2.2992897662710105E-009
  -8.4300000000000000E-002     2.8926440756915760E-009
  -8.3449999999999996E-002     2.5715000693305166E-009
  -8.2600000000000007E-002     9.7299089321752165E-010
  -8.1749999999999989E-002    -1.8953310220114624E-009
  -8.0900000000000000E-002    -5.4892456329339340E-009
  -8.0049999999999996E-002    -8.7160904560923060E-009
  -7.9199999999999993E-002    -1.0141216155077013E-008
  -7.8350000000000003E-002    -8.4092277301067960E-009
  -7.7499999999999999E-002    -2.7891132376730583E-009
  -7.6649999999999996E-002     6.3251083602568206E-009
  -7.5800000000000006E-002     1.7160253878042692E-008
  -7.4949999999999989E-002     2.6722824520641980E-008
  -7.4099999999999999E-002     3.1428794912673564E-008
  -7.3249999999999996E-002     2.8105220245178514E-008
  -7.2399999999999992E-002     1.5107583666147111E-008
  -7.1550000000000002E-002    -6.8004792790651806E-009
  -7.0699999999999999E-002    -3.4147174709859062E-008
  -6.9849999999999995E-002    -6.1238179473032878E-008
  -6.9000000000000006E-002    -8.1399556838051968E-008
  -6.8149999999999988E-002    -8.8687329192241097E-008
  -6.7299999999999999E-002    -7.9573325865260205E-008
  -6.6449999999999995E-002    -5.4062961078101047E-008
  -6.5599999999999992E-002    -1.5832969895159338E-008
  -6.4750000000000002E-002     2.8727854008809001E-008
  -6.3899999999999998E-002     7.2319852264658919E-008
  -6.3049999999999995E-002     1.0879967013984677E-007
  -6.2199999999999998E-002     1.3479106118311295E-007
  -6.1350000000000002E-002     1.5022176264648044E-007
  -6.0499999999999998E-002     1.5751362217477799E-007
  -5.9650000000000002E-002     1.5963992195282619E-007
  -5.8799999999999998E-002     1.5772764597635905E-007
  -5.7950000000000002E-002     1.4914930988566323E-007
  -5.7099999999999998E-002     1.2699580437647685E-007
  -5.6249999999999994E-002     8.1434279109009771E-008
  -5.5400000000000005E-002     2.8303364195209472E-009
  -5.4550000000000001E-002    -1.1414153166379382E-007
  -5.3699999999999998E-002    -2.6664075282109985E-007
  -5.2849999999999994E-002    -4.4137909843719681E-007
  -5.2000000000000005E-002    -6.1488309646565606E-007
  -5.1150000000000001E-002    -7.5655085924685359E-007
  -5.0299999999999997E-002    -8.3389707209912968E-007
  -4.9449999999999994E-002    -8.1866815091034101E-007
  -4.8600000000000004E-002    -6.9216614511209351E-007
  -4.7750000000000001E-002    -4.4831037118242934E-007
  -4.6899999999999997E-002    -9.3606437051811518E-008
  -4.6049999999999994E-002     3.5588044819463427E-007
  -4.5200000000000004E-002     8.7957527827398076E-007
  -4.4350000000000001E-002     1.4579430323591922E-006
  -4.3499999999999997E-002     2.0769381693527192E-006
  -4.2649999999999993E-002     2.7302400601048667E-006
  -4.1800000000000004E-002     3.4190450319292207E-006
  -4.0950000000000000E-002     4.1499862557908051E-006
  -4.0099999999999997E-002     4.9324266870902585E-006
  -3.9249999999999993E-002     5.7765145636043352E-006
  -3.8400000000000004E-002     6.6930720526482684E-006
  -3.7550000000000000E-002     7.6956714828200511E-006
  -3.6699999999999997E-002     8.8043408241344373E-006
  -3.5850000000000007E-002     1.0049703923778789E-005
  -3.5000000000000003E-002     1.1476135609716273E-005
  -3.4150000000000000E-002     1.3142903098445622E-005
  -3.3299999999999996E-002     1.5122802158009432E-005
  -3.2450000000000007E-002     1.7498490428557141E-005
  -3.1600000000000003E-002     2.0357953861765109E-005
  -3.0750000000000000E-002     2.3790343631526480E-005
  -2.9899999999999996E-002     2.7883446031672531E-005
  -2.9050000000000006E-002     3.2723637330103899E-005
  -2.8200000000000003E-002     3.8398465634028833E-005
  -2.7349999999999999E-002     4.5001143101574208E-005
  -2.6499999999999996E-002     5.2636142833783662E-005
  -2.5650000000000006E-002     6.1424507000082759E-005
  -2.4800000000000003E-002     7.1508612481663118E-005
  -2.3949999999999999E-002     8.3055349199133270E-005
  -2.3099999999999996E-002     9.6258241049300907E-005
  -2.2250000000000006E-002     1.1133835020433815E-004
  -2.1400000000000002E-002     1.2854493187009004E-004
  -2.0549999999999999E-002     1.4815536342969803E-004
  -1.9699999999999995E-002     1.7047474068462940E-004
  -1.8850000000000006E-002     1.9583596866832014E-004
  -1.8000000000000002E-002     2.2459928549743388E-004
  -1.7149999999999999E-002     2.5715250729709693E-004
  -1.6299999999999995E-002     2.9391076384590388E-004
  -1.5450000000000005E-002     3.3531799512691112E-004
  -1.4600000000000002E-002     3.8185011217110507E-004
  -1.3749999999999998E-002     4.3401694597846761E-004
  -1.2899999999999995E-002     4.9236585614764175E-004
  -1.2050000000000005E-002     5.5748429331570312E-004
  -1.1200000000000002E-002     6.2999960739425708E-004
  -1.0349999999999998E-002     7.1057778447189347E-004
  -9.5000000000000084E-003     7.9991836606048482E-004
  -8.6500000000000049E-003     8.9874863200973968E-004
  -7.8000000000000014E-003     1.0078210161805999E-003
  -6.9499999999999978E-003     1.1279062111630394E-003
  -6.1000000000000082E-003     1.2597943406069561E-003
  -5.2500000000000047E-003     1.4042940030862443E-003
  -4.4000000000000011E-003     1.5622324744105803E-003
  -3.5499999999999976E-003     1.7344527062158946E-003
  -2.7000000000000079E-003     1.9218009375688945E-003
  -1.8500000000000044E-003     2.1251131073402835E-003
  -1.0000000000000009E-003     2.3451944993750297E-003
  -1.4999999999999736E-004     2.5827884577314859E-003
   6.9999999999999230E-004     2.8385530344215101E-003
   1.5499999999999958E-003     3.1130252634149246E-003
   2.3999999999999994E-003     3.4066137363456986E-003
   3.2500000000000029E-003     3.7195800699356004E-003
   4.0999999999999925E-003     4.0520341543505561E-003
   4.9499999999999961E-003     4.4039309698228144E-003
   5.7999999999999996E-003     4.7750636247973436E-003
   6.6499999999999893E-003     5.1650463524488448E-003
   7.5000000000000067E-003     5.5732926480779807E-003
   8.3499999999999963E-003     5.9989785031560154E-003
   9.1999999999999860E-003     6.4410045844119400E-003
   1.0050000000000003E-002     6.8979627599378528E-003
   1.0899999999999993E-002     7.3680825922782835E-003
   1.1750000000000010E-002     7.8492247010309001E-003
   1.2600000000000000E-002     8.3388054954285397E-003
   1.3449999999999990E-002     8.8338065491874295E-003
   1.4300000000000007E-002     9.3307925599774161E-003
   1.5149999999999997E-002     9.8258510858149403E-003
   1.5999999999999986E-002     1.0314659434955943E-002
   1.6850000000000004E-002     1.0792472357479528E-002
   1.7699999999999994E-002     1.1254073823330995E-002
   1.8549999999999983E-002     1.1693807031151398E-002
   1.9400000000000001E-002     1.2105590270035341E-002
   2.0249999999999990E-002     1.2482935481143039E-002
   2.1100000000000008E-002     1.2818946171433261E-002
   2.1949999999999997E-002     1.3106328728332362E-002
   2.2799999999999987E-002     1.3337524844151747E-002
   2.3650000000000004E-002     1.3504669244893667E-002
   2.4499999999999994E-002     1.3599647411968891E-002
   2.5349999999999984E-002     1.3614234767916407E-002
   2.6200000000000001E-002     1.3540156114355030E-002
   2.7049999999999991E-002     1.3369169771333655E-002
   2.7900000000000008E-002     1.3093092799568471E-002
   2.8749999999999998E-002     1.2703948807926710E-002
   2.9599999999999987E-002     1.2194078382686760E-002
   3.0450000000000005E-002     1.1556281240139334E-002
   3.1299999999999994E-002     1.0784001587116471E-002
   3.2149999999999984E-002     9.8713509446873311E-003
   3.3000000000000002E-002     8.8132063616049219E-003
   3.3849999999999991E-002     7.6054211673628018E-003
   3.4700000000000009E-002     6.2449218713729066E-003
   3.5549999999999998E-002     4.7298121290020390E-003
   3.6399999999999988E-002     3.0594161623765216E-003
   3.7250000000000005E-002     1.2344836627668138E-003
   3.8099999999999995E-002    -7.4271411792973391E-004
   3.8949999999999985E-002    -2.8683098924417406E-003
   3.9800000000000002E-002    -5.1365524922187388E-003
   4.0649999999999992E-002    -7.5399664676131847E-003
   4.1500000000000009E-002    -1.0069169817177131E-002
   4.2349999999999999E-002    -1.2712831665474499E-002
   4.3199999999999988E-002    -1.5457838537931095E-002
   4.4050000000000006E-002    -1.8289084106787999E-002
   4.4899999999999995E-002    -2.1189610501452801E-002
   4.5749999999999985E-002    -2.4140756329338233E-002
   4.6600000000000003E-002    -2.7122153644243398E-002
   4.7449999999999992E-002    -3.0111889559556414E-002
   4.8299999999999982E-002    -3.3086668021839835E-002
   4.9149999999999999E-002    -3.6021915767570981E-002
   4.9999999999999989E-002    -3.8892018625482520E-002
   5.0850000000000006E-002    -4.1670485985138728E-002
   5.1699999999999996E-002    -4.4330200446731818E-002
   5.2549999999999986E-002    -4.6843676672929574E-002
   5.3400000000000003E-002    -4.9183088049906384E-002
   5.4249999999999993E-002    -5.1320793830464638E-002
   5.5099999999999982E-002    -5.3229741472689308E-002
   5.5950000000000000E-002    -5.4883763285138158E-002
   5.6799999999999989E-002    -5.6257940461289721E-002
   5.7650000000000007E-002    -5.7328829250333509E-002
   5.8499999999999996E-002    -5.8074922380573428E-002
   5.9349999999999986E-002    -5.8476788842595620E-002
   6.0200000000000004E-002    -5.8517355509753746E-002
   6.1049999999999993E-002    -5.8182150253587195E-002
   6.1899999999999983E-002    -5.7459562428861952E-002
   6.2750000000000000E-002    -5.6341190863781025E-002
   6.3599999999999990E-002    -5.4822056060213648E-002
   6.4450000000000007E-002    -5.2900742269598726E-002
   6.5299999999999997E-002    -5.0579506711027664E-002
   6.6149999999999987E-002    -4.7864464593090149E-002
   6.7000000000000004E-002    -4.4765720192572474E-002
   6.7849999999999994E-002    -4.1297254106229211E-002
   6.8699999999999983E-002    -3.7476773253746286E-002
   6.9550000000000001E-002    -3.3325605133170573E-002
   7.0399999999999990E-002    -2.8868638816286672E-002
   7.1249999999999980E-002    -2.4134134549557915E-002
   7.2099999999999997E-002    -1.9153378154795259E-002
   7.2949999999999987E-002    -1.3960654516893737E-002
   7.3800000000000004E-002    -8.5929429487979249E-003
   7.4649999999999994E-002    -3.0894766733395463E-003
   7.5499999999999984E-002     2.5085686907019757E-003
   7.6350000000000001E-002     8.1585738404991118E-003
   7.7199999999999991E-002     1.3816826104384080E-002
   7.8049999999999981E-002     1.9439249493771609E-002
   7.8899999999999998E-002     2.4981817470625809E-002
   7.9749999999999988E-002     3.0400893232887201E-002
   8.0600000000000005E-002     3.5653784361890789E-002
   8.1449999999999995E-002     4.0698994559893731E-002
   8.2299999999999984E-002     4.5496604478649880E-002
   8.3150000000000002E-002     5.0008760602151980E-002
   8.3999999999999991E-002     5.4200120568571944E-002
   8.4849999999999981E-002     5.8038248354386465E-002
   8.5699999999999998E-002     6.1494040363891118E-002
   8.6549999999999988E-002     6.4542175920081074E-002
   8.7400000000000005E-002     6.7161172177445327E-002
   8.8249999999999995E-002     6.9333658123238801E-002
   8.9099999999999985E-002     7.1046512661334646E-002
   8.9950000000000002E-002     7.2290833748379968E-002
   9.0799999999999992E-002     7.3062136728810886E-002
   9.1649999999999981E-002     7.3360178087181607E-002
   9.2499999999999999E-002     7.3188919016091980E-002
   9.3349999999999989E-002     7.2556292816248993E-002
   9.4200000000000006E-002     7.1474718714649332E-002
   9.5049999999999996E-002     6.9960588494492118E-002
   9.5899999999999985E-002     6.8033876867338139E-002
   9.6750000000000003E-002     6.5717890573939869E-002
   9.7599999999999992E-002     6.3039119489425061E-002
   9.8449999999999982E-002     6.0026972134902767E-002
   9.9299999999999999E-002     5.6712901496973597E-002
  0.10014999999999999          5.3130203288843533E-002
  0.10099999999999998          4.9313691622771376E-002
  0.10185000000000000          4.5299515773592113E-002
  0.10269999999999999          4.1124540273656654E-002
  0.10355000000000000          3.6825899280689488E-002
  0.10439999999999999          3.2440659731565645E-002
  0.10524999999999998          2.8005658188961981E-002
  0.10610000000000000          2.3557016042274455E-002
  0.10694999999999999          1.9129504174846240E-002
  0.10779999999999998          1.4756399267386032E-002
  0.10865000000000000          1.0469272748764965E-002
  0.10949999999999999          6.2976635674533788E-003
  0.11035000000000000          2.2687947952569620E-003
  0.11119999999999999         -1.5925388721596875E-003
  0.11204999999999998         -5.2642130885219192E-003
  0.11290000000000000         -8.7267912543490117E-003
  0.11374999999999999         -1.1963635189296521E-002
  0.11459999999999998         -1.4961020058916030E-002
  0.11545000000000000         -1.7708016029513159E-002
  0.11629999999999999         -2.0196583901138723E-002
  0.11715000000000000         -2.2421448362546614E-002
  0.11799999999999999         -2.4379958675995652E-002
  0.11884999999999998         -2.6072066526333669E-002
  0.11970000000000000         -2.7500023938932278E-002
  0.12054999999999999         -2.8668378605003299E-002
  0.12139999999999998         -2.9583852628624115E-002
  0.12225000000000000         -3.0255036976159777E-002
  0.12309999999999999         -3.0692297616428995E-002
  0.12395000000000000         -3.0907514220097753E-002
  0.12479999999999999         -3.0913839349210420E-002
  0.12564999999999998         -3.0725511578336948E-002
  0.12650000000000000         -3.0357472050606921E-002
  0.12734999999999999         -2.9825197840268908E-002
  0.12819999999999998         -2.9144486860145639E-002
  0.12905000000000000         -2.8331304257845375E-002
  0.12989999999999999         -2.7401645694089760E-002
  0.13074999999999998         -2.6371454370675593E-002
  0.13159999999999999         -2.5256456399061374E-002
  0.13245000000000001         -2.4071995844729962E-002
  0.13329999999999997         -2.2832881790762129E-002
  0.13414999999999999         -2.1553156691218944E-002
  0.13500000000000001         -2.0246001715860183E-002
  0.13584999999999997         -1.8923691571984428E-002
  0.13669999999999999         -1.7597496552060179E-002
  0.13755000000000001         -1.6277655231820946E-002
  0.13839999999999997         -1.4973460547076363E-002
  0.13924999999999998         -1.3693285275103941E-002
  0.14010000000000000         -1.2444658217647715E-002
  0.14094999999999996         -1.1234263616223488E-002
  0.14179999999999998         -1.0067861614986776E-002
  0.14265000000000000         -8.9502224265147531E-003
  0.14350000000000002         -7.8851016721720943E-003
  0.14434999999999998         -6.8752906393341959E-003
  0.14520000000000000         -5.9227517973773798E-003
  0.14605000000000001         -5.0287094963795348E-003
  0.14689999999999998         -4.1937669101248104E-003
  0.14774999999999999         -3.4180439785479670E-003
  0.14860000000000001         -2.7012138359431026E-003
  0.14944999999999997         -2.0425921815928469E-003
  0.15029999999999999         -1.4411304551243198E-003
  0.15115000000000001         -8.9540154677852555E-004
  0.15199999999999997         -4.0360988088002336E-004
  0.15284999999999999          3.6424926850546903E-005
  0.15370000000000000          4.2720094600048116E-004
  0.15454999999999997          7.7137130852765522E-004
  0.15539999999999998          1.0716498649919451E-003
  0.15625000000000000          1.3307378965038495E-003
  0.15709999999999996          1.5512876568768716E-003
  0.15794999999999998          1.7359216031118012E-003
  0.15880000000000000          1.8872443911428268E-003
  0.15965000000000001          2.0078882342174625E-003
  0.16049999999999998          2.1005024834427049E-003
  0.16134999999999999          2.1677406639126319E-003
  0.16220000000000001          2.2121685430152478E-003
  0.16304999999999997          2.2362111064619140E-003
  0.16389999999999999          2.2421665166371570E-003
  0.16475000000000001          2.2321682148384440E-003
  0.16559999999999997          2.2082277646555890E-003
  0.16644999999999999          2.1723074604483011E-003
  0.16730000000000000          2.1263450026596034E-003
  0.16814999999999997          2.0722681670392240E-003
  0.16899999999999998          2.0119578914149375E-003
  0.16985000000000000          1.9471784007599159E-003
  0.17069999999999996          1.8794689482754428E-003
  0.17154999999999998          1.8100585321333500E-003
  0.17240000000000000          1.7398506074446072E-003
  0.17325000000000002          1.6694829245810796E-003
  0.17409999999999998          1.5994385738484344E-003
  0.17494999999999999          1.5301838805586703E-003
  0.17580000000000001          1.4622923432957013E-003
  0.17664999999999997          1.3964691256098285E-003
  0.17749999999999999          1.3335054067132048E-003
  0.17835000000000001          1.2741331795258135E-003
  0.17919999999999997          1.2188781643166853E-003
  0.18004999999999999          1.1679579976272242E-003
  0.18090000000000001          1.1212225953344274E-003
  0.18174999999999997          1.0781843804478796E-003
  0.18259999999999998          1.0381582912535328E-003
  0.18345000000000000          1.0004354258026295E-003
  0.18429999999999996          9.6444642210349440E-004
  0.18514999999999998          9.2988205165432723E-004
  0.18600000000000000          8.9667053667296639E-004
  0.18684999999999996          8.6486950023146442E-004
  0.18769999999999998          8.3453384132224661E-004
  0.18855000000000000          8.0558668185782851E-004
  0.18940000000000001          7.7773294413375474E-004
  0.19024999999999997          7.5046637340085763E-004
  0.19109999999999999          7.2317162661307186E-004
  0.19195000000000001          6.9526889223115688E-004
  0.19279999999999997          6.6634863868650362E-004
  0.19364999999999999          6.3624266800176011E-004
  0.19450000000000001          6.0503800596164753E-004
  0.19534999999999997          5.7301843186559950E-004
  0.19619999999999999          5.4054102120443552E-004
  0.19705000000000000          5.0794088649216680E-004
  0.19789999999999996          4.7546285310318777E-004
  0.19874999999999998          4.4324710804145146E-004
  0.19960000000000000          4.1137964890475574E-004
  0.20044999999999996          3.7996630622505207E-004
  0.20129999999999998          3.4919094781217042E-004
  0.20215000000000000          3.1933166128759170E-004
  0.20300000000000001          2.9072788259600129E-004
  0.20384999999999998          2.6370686454359443E-004
  0.20469999999999999          2.3852035814408290E-004
  0.20555000000000001          2.1530409939112764E-004
  0.20639999999999997          1.9408517815301050E-004
  0.20724999999999999          1.7482791864529084E-004
  0.20810000000000001          1.5750697888562769E-004
  0.20894999999999997          1.4216805148965881E-004
  0.20979999999999999          1.2894353924756204E-004
  0.21065000000000000          1.1801005408533010E-004
  0.21149999999999997          1.0950105021267727E-004
  0.21234999999999998          1.0341235953674428E-004
  0.21320000000000000          9.9526817847637387E-005
  0.21404999999999996          9.7411071096054058E-005
  0.21489999999999998          9.6485959193275123E-005
  0.21575000000000000          9.6131902882410646E-005
  0.21659999999999996          9.5823162526612794E-005
  0.21744999999999998          9.5232115218336756E-005
  0.21829999999999999          9.4257325285988604E-005
  0.21915000000000001          9.2984574123674494E-005
  0.21999999999999997          9.1580875915150809E-005
  0.22084999999999999          9.0172828728395739E-005
  0.22170000000000001          8.8750136982405754E-005
  0.22254999999999997          8.7127712682126944E-005
  0.22339999999999999          8.4987435166916273E-005
  0.22425000000000000          8.1980312542197090E-005
  0.22509999999999997          7.7848182212366198E-005
  0.22594999999999998          7.2522878867861009E-005
  0.22680000000000000          6.6168997855732648E-005
  0.22764999999999996          5.9157752242486403E-005
  0.22849999999999998          5.1979525187051107E-005
  0.22935000000000000          4.5124426076505258E-005
  0.23019999999999996          3.8985926550173026E-005
  0.23104999999999998          3.3802954626339220E-005
  0.23190000000000000          2.9658591456127872E-005
  0.23275000000000001          2.6533587813549210E-005
  0.23359999999999997          2.4372816485703476E-005
  0.23444999999999999          2.3154501149005716E-005
  0.23530000000000001          2.2926094850280503E-005
  0.23614999999999997          2.3799047347715179E-005
  0.23699999999999999          2.5919867978313762E-005
  0.23785000000000001          2.9416786488037017E-005
  0.23869999999999997          3.4359368275324327E-005
  0.23954999999999999          4.0737305632143576E-005
  0.24040000000000000          4.8457305513634865E-005
  0.24124999999999996          5.7349891206840858E-005
  0.24209999999999998          6.7180222944430214E-005
  0.24295000000000000          7.7659284413389686E-005
  0.24379999999999996          8.8446933599265970E-005
  0.24464999999999998          9.9156597349673344E-005
  0.24550000000000000          1.0936907280187362E-004
  0.24634999999999996          1.1866802484408645E-004
  0.24719999999999998          1.2668911496517958E-004
  0.24804999999999999          1.3316810455320290E-004
  0.24890000000000001          1.3797393908489763E-004
  0.24974999999999997          1.4110680850525434E-004
  0.25059999999999999          1.4265638918551721E-004
  0.25145000000000001          1.4273416388802847E-004
  0.25229999999999997          1.4139515246779858E-004
  0.25314999999999999          1.3858638479275119E-004
  0.25400000000000000          1.3414369443128717E-004
  0.25484999999999997          1.2784202715990624E-004
  0.25569999999999998          1.1949653034148078E-004
  0.25655000000000000          1.0907085190927083E-004
  0.25739999999999996          9.6757420384989347E-005
  0.25824999999999998          8.3001696989576393E-005
  0.25910000000000000          6.8446601614554047E-005
  0.25994999999999996          5.3812881642036380E-005
  0.26079999999999998          3.9757588612028292E-005
  0.26164999999999999          2.6746077731184358E-005
  0.26249999999999996          1.4983811733489626E-005
  0.26334999999999997          4.4314959103522840E-006
  0.26419999999999999         -5.1039570659757245E-006
  0.26505000000000001         -1.3834397971943098E-005
  0.26589999999999997         -2.1862790761720347E-005
  0.26674999999999999         -2.9098537622495959E-005
  0.26760000000000000         -3.5252749101830514E-005
  0.26844999999999997         -3.9912758060827821E-005
  0.26929999999999998         -4.2669221781413392E-005
  0.27015000000000000         -4.3249502842124729E-005
  0.27099999999999996         -4.1614790874477675E-005
  0.27184999999999998         -3.7997902092436119E-005
  0.27270000000000000         -3.2861231304049776E-005
  0.27354999999999996         -2.6797120229588164E-005
  0.27439999999999998         -2.0406306404124618E-005
  0.27524999999999999         -1.4189887843289315E-005
  0.27609999999999996         -8.4799437012846191E-006
  0.27694999999999997         -3.4280534344588264E-006
  0.27779999999999999          9.5674151387371429E-007
  0.27865000000000001          4.7414657707353021E-006
  0.27949999999999997          7.9933039159728268E-006
  0.28034999999999999          1.0721404354574883E-005
  0.28120000000000001          1.2853619465047580E-005
  0.28204999999999997          1.4240237020012797E-005
  0.28289999999999998          1.4680244945473986E-005
  0.28375000000000000          1.3970484218972504E-005
  0.28459999999999996          1.1952712348394087E-005
  0.28544999999999998          8.5538373646691448E-006
  0.28630000000000000          3.8204422821152580E-006
  0.28714999999999996         -2.0649612772358404E-006
  0.28799999999999998         -8.7875598159133310E-006
  0.28885000000000000         -1.5925159269304540E-005
  0.28969999999999996         -2.2996230509408237E-005
  0.29054999999999997         -2.9524623179666040E-005
  0.29139999999999999         -3.5109101076609117E-005
  0.29224999999999995         -3.9480204820591980E-005
  0.29309999999999997         -4.2527483383886461E-005
  0.29394999999999999         -4.4283540267303262E-005
  0.29480000000000001         -4.4868756262721952E-005
  0.29564999999999997         -4.4410308711288890E-005
  0.29649999999999999         -4.2963243817947537E-005
  0.29735000000000000         -4.0459623930364446E-005
  0.29819999999999997         -3.6707300872600271E-005
  0.29904999999999998         -3.1448691992272783E-005
  0.29990000000000000         -2.4457721894490647E-005
  0.30074999999999996         -1.5643846078289751E-005
  0.30159999999999998         -5.1321897894149418E-006
  0.30245000000000000          6.7139109548734781E-006
  0.30329999999999996          1.9340140210665006E-005
  0.30414999999999998          3.2102359266167135E-005
  0.30499999999999999          4.4391206071671699E-005
  0.30584999999999996          5.5743023449992956E-005
  0.30669999999999997          6.5898812866884113E-005
  0.30754999999999999          7.4791293708226193E-005
  0.30840000000000001          8.2473760368268614E-005
  0.30924999999999997          8.9017809479442493E-005
  0.31009999999999999          9.4418540011322744E-005
  0.31095000000000000          9.8540183275733093E-005
  0.31179999999999997          1.0112320720661242E-004
  0.31264999999999998          1.0184588206836428E-004
  0.31350000000000000          1.0041381327720407E-004
  0.31434999999999996          9.6645422587771573E-005
  0.31519999999999998          9.0522082953923839E-005
  0.31605000000000000          8.2186807235819519E-005
  0.31689999999999996          7.1898262239156790E-005
  0.31774999999999998          5.9962949932135990E-005
  0.31859999999999999          4.6670986071328125E-005
  0.31944999999999996          3.2262867791268623E-005
  0.32029999999999997          1.6933019082634204E-005
  0.32114999999999999          8.5893452915796057E-007
  0.32199999999999995         -1.5763066370944397E-005
  0.32284999999999997         -3.2700392338088811E-005
  0.32369999999999999         -4.9698886560818550E-005
  0.32455000000000001         -6.6523316972305404E-005
  0.32539999999999997         -8.3012204872187341E-005
  0.32624999999999998         -9.9121509967158483E-005
  0.32710000000000000         -1.1493331257564308E-004
  0.32794999999999996         -1.3062304212888058E-004
  0.32879999999999998         -1.4639691905299928E-004
  0.32965000000000000         -1.6242287116882950E-004
  0.33049999999999996         -1.7878604499516718E-004
  0.33134999999999998         -1.9549081553449669E-004
  0.33220000000000000         -2.1251188490544601E-004
  0.33304999999999996         -2.2987681375705599E-004
  0.33389999999999997         -2.4774714184124110E-004
  0.33474999999999999         -2.6646320183507528E-004
  0.33559999999999995         -2.8653157717304891E-004
  0.33644999999999997         -3.0855311428980254E-004
  0.33729999999999999         -3.3311019484992945E-004
  0.33815000000000001         -3.6065287518500708E-004
  0.33899999999999997         -3.9142000171129486E-004
  0.33984999999999999         -4.2542363493478614E-004
  0.34070000000000000         -4.6250206478651469E-004
  0.34154999999999996         -5.0241859547484416E-004
  0.34239999999999998         -5.4496617024471050E-004