 -0.12000000000000000          0.0000000000000000
 -0.11914999999999999          0.0000000000000000
 -0.11830000000000000          0.0000000000000000
 -0.11745000000000000          0.0000000000000000
 -0.11660000000000000          0.0000000000000000
 -0.11574999999999999          0.0000000000000000
 -0.11490000000000000          0.0000000000000000
 -0.11405000000000000          0.0000000000000000
 -0.11320000000000000          0.0000000000000000
 -0.11234999999999999          0.0000000000000000
 -0.11150000000000000         -1.0345248180898487E-028
 -0.11065000000000000         -1.4063761157146376E-027
 -0.10979999999999999         -9.0815145780132890E-027
 -0.10894999999999999         -3.4970806031443690E-026
 -0.10810000000000000         -7.5373712566580488E-026
 -0.10725000000000000          3.6440328725776741E-027
 -0.10639999999999999          7.4377828156757937E-025
 -0.10554999999999999          3.3685490066206308E-024
 -0.10470000000000000          9.1562071655381332E-024
 -0.10385000000000000          1.5952238192681381E-023
 -0.10299999999999999          9.9268398883918197E-024
 -0.10214999999999999         -4.4939529274382578E-023
 -0.10130000000000000         -2.0537323404619643E-022
 -0.10045000000000000         -5.0454981240557896E-022
  -9.9599999999999994E-002    -8.2949243315242787E-022
  -9.8750000000000004E-002    -7.2403935533630210E-022
  -9.7900000000000001E-002     7.6257939598422566E-022
  -9.7049999999999997E-002     4.8801509378969919E-021
  -9.6199999999999994E-002     1.2200520454558223E-020
  -9.5349999999999990E-002     2.0580317791186188E-020
  -9.4500000000000001E-002     2.2512081687029300E-020
  -9.3649999999999997E-002     3.6922852545272271E-021
  -9.2799999999999994E-002    -5.3808153901946639E-020
  -9.1950000000000004E-002    -1.5993680181713854E-019
  -9.1100000000000000E-002    -2.9530778871963892E-019
  -9.0249999999999997E-002    -3.8573741375302775E-019
  -8.9399999999999993E-002    -2.8894769845874513E-019
  -8.8549999999999990E-002     1.8056357294738253E-019
  -8.7700000000000000E-002     1.1624365860585202E-018
  -8.6849999999999997E-002     2.5909497256901286E-018
  -8.5999999999999993E-002     4.0038717845113552E-018
  -8.5150000000000003E-002     4.4201861446319813E-018
  -8.4300000000000000E-002     2.4385407602045648E-018
  -8.3449999999999996E-002    -3.2951705770765474E-018
  -8.2600000000000007E-002    -1.3205011028997790E-017
  -8.1749999999999989E-002    -2.5657835050766751E-017
  -8.0900000000000000E-002    -3.6050408878123203E-017
  -8.0049999999999996E-002    -3.6807583385956221E-017
  -7.9199999999999993E-002    -1.9003207851425771E-017
  -7.8350000000000003E-002     2.4056026980277294E-017
  -7.7499999999999999E-002     9.1752588002275740E-017
  -7.6649999999999996E-002     1.7113563245140026E-016
  -7.5800000000000006E-002     2.3446101908185513E-016
  -7.4949999999999989E-002     2.4206151882644492E-016
  -7.4099999999999999E-002     1.5237287787503692E-016
  -7.3249999999999996E-002    -6.1376773544957708E-017
  -7.2399999999999992E-002    -3.9155684159985604E-016
  -7.1550000000000002E-002    -7.8046594929138368E-016
  -7.0699999999999999E-002    -1.1169422486640003E-015
  -6.9849999999999995E-002    -1.2520622629596823E-015
  -6.9000000000000006E-002    -1.0357251034793959E-015
  -6.8149999999999988E-002    -3.6826929156947491E-016
  -6.7299999999999999E-002     7.4658965189486069E-016
  -6.6449999999999995E-002     2.1659722334164571E-015
  -6.5599999999999992E-002     3.6064045460793222E-015
  -6.4750000000000002E-002     4.6856062580266344E-015
  -6.3899999999999998E-002     5.0022955105283468E-015
  -6.3049999999999995E-002     4.2340223962787195E-015
  -6.2199999999999998E-002     2.2237770560209972E-015
  -6.1350000000000002E-002    -9.7268792853327645E-016
  -6.0499999999999998E-002    -5.0922986886840962E-015
  -5.9650000000000002E-002    -9.7131086321161612E-015
  -5.8799999999999998E-002    -1.4313049793035426E-014
  -5.7950000000000002E-002    -1.8294791821910983E-014
  -5.7099999999999998E-002    -2.0943815863317104E-014
  -5.6249999999999994E-002    -2.1324176153197321E-014
  -5.5400000000000005E-002    -1.8170823182648824E-014
  -5.4550000000000001E-002    -9.8895167332377561E-015
  -5.3699999999999998E-002     5.2020658556710860E-015
  -5.2849999999999994E-002     2.8290837073668703E-014
  -5.2000000000000005E-002     5.9139837492835725E-014
  -5.1150000000000001E-002     9.4976370746152859E-014
  -5.0299999999999997E-002     1.2953360683383047E-013
  -4.9449999999999994E-002     1.5272661037928706E-013
  -4.8600000000000004E-002     1.5146419901893173E-013
  -4.7750000000000001E-002     1.1194889864773965E-013
  -4.6899999999999997E-002     2.3463115866457476E-014
  -4.6049999999999994E-002    -1.1687117105891030E-013
  -4.5200000000000004E-002    -2.9943075634248393E-013
  -4.4350000000000001E-002    -4.9901629260435627E-013
  -4.3499999999999997E-002    -6.7494846138431893E-013
  -4.2649999999999993E-002    -7.7554566451360074E-013
  -4.1800000000000004E-002    -7.4721831399986218E-013
  -4.0950000000000000E-002    -5.4713227486246569E-013
  -4.0099999999999997E-002    -1.5696447394396059E-013
  -3.9249999999999993E-002     4.0575308699528940E-013
  -3.8400000000000004E-002     1.0824003983271677E-012
  -3.7550000000000000E-002     1.7768369233609794E-012
  -3.6699999999999997E-002     2.3683150497962774E-012
  -3.5850000000000007E-002     2.7315418082715990E-012
  -3.5000000000000003E-002     2.7590891604813021E-012
  -3.4150000000000000E-002     2.3798653787463937E-012
  -3.3299999999999996E-002     1.5682038092174479E-012
  -3.2450000000000007E-002     3.4124593859987644E-013
  -3.1600000000000003E-002    -1.2530059303763188E-012
  -3.0750000000000000E-002    -3.1493615794748952E-012
  -2.9899999999999996E-002    -5.2702382347801661E-012
  -2.9050000000000006E-002    -7.5118800342168556E-012
  -2.8200000000000003E-002    -9.7080158510174852E-012
  -2.7349999999999999E-002    -1.1577532029732496E-011
  -2.6499999999999996E-002    -1.2674588200248017E-011
  -2.5650000000000006E-002    -1.2369905128161348E-011
  -2.4800000000000003E-002    -9.8941222971536626E-012
  -2.3949999999999999E-002    -4.4664819030633738E-012
  -2.3099999999999996E-002     4.4871853686849124E-012
  -2.2250000000000006E-002     1.7050795902285267E-011
  -2.1400000000000002E-002     3.2522490349449317E-011
  -2.0549999999999999E-002     4.9185902915490337E-011
  -1.9699999999999995E-002     6.4235508786792958E-011
  -1.8850000000000006E-002     7.3934049773520929E-011
  -1.8000000000000002E-002     7.4045842321054383E-011
  -1.7149999999999999E-002     6.0541669056997519E-011
  -1.6299999999999995E-002     3.0509745426298471E-011
  -1.5450000000000005E-002    -1.6851198017260208E-011
  -1.4600000000000002E-002    -7.9329926681294563E-011
  -1.3749999999999998E-002    -1.5109314959913244E-010
  -1.2899999999999995E-002    -2.2256817366068930E-010
  -1.2050000000000005E-002    -2.8098571554736968E-010
  -1.1200000000000002E-002    -3.1168302603569365E-010
  -1.0349999999999998E-002    -3.0015693936136305E-010
  -9.5000000000000084E-003    -2.3471830494911995E-010
  -8.6500000000000049E-003    -1.0943228119596526E-010
  -7.8000000000000014E-003     7.3120250062736509E-011
  -6.9499999999999978E-003     2.9984000617878308E-010
  -6.1000000000000082E-003     5.4646462373677032E-010
  -5.2500000000000047E-003     7.7878646947658642E-010
  -4.4000000000000011E-003     9.5597692095002145E-010
  -3.5499999999999976E-003     1.0358863412302954E-009
  -2.7000000000000079E-003     9.8174199221301372E-010
  -1.8500000000000044E-003     7.6926928182892370E-010
  -1.0000000000000009E-003     3.9299079502192735E-010
  -1.4999999999999736E-004    -1.2954518719786416E-010
   6.9999999999999230E-004    -7.5659768679315694E-010
   1.5499999999999958E-003    -1.4245861810203317E-009
   2.3999999999999994E-003    -2.0537591807537470E-009
   3.2500000000000029E-003    -2.5564289363087622E-009
   4.0999999999999925E-003    -2.8465885875650834E-009
   4.9499999999999961E-003    -2.8496427527007126E-009
   5.7999999999999996E-003    -2.5111927812511118E-009
   6.6499999999999893E-003    -1.8044221846918831E-009
   7.5000000000000067E-003    -7.3588700730115425E-010
   8.3499999999999963E-003     6.5016623243444445E-010
   9.1999999999999860E-003     2.2690313635202543E-009
   1.0050000000000003E-002     3.9947013515690660E-009
   1.0899999999999993E-002     5.6620332009281731E-009
   1.1750000000000010E-002     7.0734389448377544E-009
   1.2600000000000000E-002     8.0116982723995396E-009
   1.3449999999999990E-002     8.2596401271302406E-009
   1.4300000000000007E-002     7.6262176003161218E-009
   1.5149999999999997E-002     5.9768591226041223E-009
   1.5999999999999986E-002     3.2643997075484031E-009
   1.6850000000000004E-002    -4.4432327630810619E-010
   1.7699999999999994E-002    -4.9511997167522329E-009
   1.8549999999999983E-002    -9.9227960544021850E-009
   1.9400000000000001E-002    -1.4902239509564542E-008
   2.0249999999999990E-002    -1.9337281204981421E-008
   2.1100000000000008E-002    -2.2623344539978409E-008
   2.1949999999999997E-002    -2.4158714908934750E-008
   2.2799999999999987E-002    -2.3408225041465306E-008
   2.3650000000000004E-002    -1.9971294759601881E-008
   2.4499999999999994E-002    -1.3649913636526285E-008
   2.5349999999999984E-002    -4.5099473615075623E-009
   2.6200000000000001E-002     7.0708434854805035E-009
   2.7049999999999991E-002     2.0377148956698857E-008
   2.7900000000000008E-002     3.4361412441994456E-008
   2.8749999999999998E-002     4.7687809663178939E-008
   2.9599999999999987E-002     5.8818973400536099E-008
   3.0450000000000005E-002     6.6143740236898674E-008
   3.1299999999999994E-002     6.8137597799202259E-008
   3.2149999999999984E-002     6.3541002219679789E-008
   3.3000000000000002E-002     5.1537540496363782E-008
   3.3849999999999991E-002     3.1912495257873924E-008
   3.4700000000000009E-002     5.1728435855948109E-009
   3.5549999999999998E-002    -2.7384321199247208E-008
   3.6399999999999988E-002    -6.3662673321622576E-008
   3.7250000000000005E-002    -1.0082497700239066E-007
   3.8099999999999995E-002    -1.3542159822273044E-007
   3.8949999999999985E-002    -1.6359475341723920E-007
   3.9800000000000002E-002    -1.8135871122818423E-007
   4.0649999999999992E-002    -1.8495481921561725E-007
   4.1500000000000009E-002    -1.7126692991992532E-007
   4.2349999999999999E-002    -1.3826934078472729E-007
   4.3199999999999988E-002    -8.5462224918814867E-008
   4.4050000000000006E-002    -1.4233321656599406E-008
   4.4899999999999995E-002     7.1920006186030452E-008
   4.5749999999999985E-002     1.6736884474974389E-007
   4.6600000000000003E-002     2.6456479779939726E-007
   4.7449999999999992E-002     3.5449656949308165E-007
   4.8299999999999982E-002     4.2736142475844374E-007
   4.9149999999999999E-002     4.7339586863603221E-007
   4.9999999999999989E-002     4.8378439615030628E-007
   5.0850000000000006E-002     4.5157298696418554E-007
   5.1699999999999996E-002     3.7252015033605775E-007
   5.2549999999999986E-002     2.4582786240782291E-007
   5.3400000000000003E-002     7.4720815665941117E-008
   5.4249999999999993E-002    -1.3317600326035880E-007
   5.5099999999999982E-002    -3.6571424167765250E-007
   5.5950000000000000E-002    -6.0642334877268317E-007
   5.6799999999999989E-002    -8.3512433780395384E-007
   5.7650000000000007E-002    -1.0290364308349801E-006
   5.8499999999999996E-002    -1.1644142002994067E-006
   5.9349999999999986E-002    -1.2186609651961551E-006
   6.0200000000000004E-002    -1.1727984796225388E-006
   6.1049999999999993E-002    -1.0140424818379295E-006
   6.1899999999999983E-002    -7.3817222086658830E-007
   6.2750000000000000E-002    -3.5136172441391138E-007
   6.3599999999999990E-002     1.2885593325311686E-007
   6.4450000000000007E-002     6.7368621996523268E-007
   6.5299999999999997E-002     1.2443320613419699E-006
   6.6149999999999987E-002     1.7943279062819376E-006
   6.7000000000000004E-002     2.2728261498340987E-006
   6.7849999999999994E-002     2.6285382778464775E-006
   6.8699999999999983E-002     2.8140535759069336E-006
   6.9550000000000001E-002     2.7902317225953842E-006
   7.0399999999999990E-002     2.5303553597660213E-006
   7.1249999999999980E-002     2.0238010892689114E-006
   7.2099999999999997E-002     1.2788997259439190E-006
   7.2949999999999987E-002     3.2469395116751031E-007
   7.3800000000000004E-002    -7.8874046672183449E-007
   7.4649999999999994E-002    -1.9916562789286623E-006
   7.5499999999999984E-002    -3.1978871832137116E-006
   7.6350000000000001E-002    -4.3099632223431924E-006
   7.7199999999999991E-002    -5.2258950734113502E-006
   7.8049999999999981E-002    -5.8472026966483632E-006
   7.8899999999999998E-002    -6.0875003918672398E-006
   7.9749999999999988E-002    -5.8809938142409164E-006
   8.0600000000000005E-002    -5.1900197635259101E-006
   8.1449999999999995E-002    -4.0109443782279186E-006
   8.2299999999999984E-002    -2.3778433355297222E-006
   8.3150000000000002E-002    -3.6358633932453474E-007
   8.3999999999999991E-002     1.9218337161063063E-006
   8.4849999999999981E-002     4.3359788230616577E-006
   8.5699999999999998E-002     6.7113671961404108E-006
   8.6549999999999988E-002     8.8654751488644769E-006
   8.7400000000000005E-002     1.0612802165666417E-005
   8.8249999999999995E-002     1.1778507943757816E-005
   8.9099999999999985E-002     1.2212668740401980E-005
   8.9950000000000002E-002     1.1804118408222237E-005
   9.0799999999999992E-002     1.0492794792315689E-005
   9.1649999999999981E-002     8.2791575855888718E-006
   9.2499999999999999E-002     5.2300068364381622E-006
   9.3349999999999989E-002     1.4797281587625281E-006
   9.4200000000000006E-002    -2.7733909496942126E-006
   9.5049999999999996E-002    -7.2756567392843747E-006
   9.5899999999999985E-002    -1.1731248825411135E-005
   9.6750000000000003E-002    -1.5819443349701046E-005
   9.7599999999999992E-002    -1.9215061024066112E-005
   9.8449999999999982E-002    -2.1611135337083391E-005
   9.9299999999999999E-002    -2.2742621766122780E-005
  0.10014999999999999         -2.2409802848972923E-005
  0.10099999999999998         -2.0499285135174005E-005
  0.10185000000000000         -1.7000715815514579E-005
  0.10269999999999999         -1.2017272308235042E-005
  0.10355000000000000         -5.7681351034660577E-006
  0.10439999999999999          1.4182182983811277E-006
  0.10524999999999998          9.1204164442531467E-006
  0.10610000000000000          1.6849491799793392E-005
  0.10694999999999999          2.4081003823961454E-005
  0.10779999999999998          3.0291499809271975E-005
  0.10865000000000000          3.4996493880214952E-005
  0.10949999999999999          3.7786591543282667E-005
  0.11035000000000000          3.8359053755216244E-005
  0.11119999999999999          3.6542826566745201E-005
  0.11204999999999998          3.2315302488042960E-005
  0.11290000000000000          2.5810363768817103E-005
  0.11374999999999999          1.7316786056668034E-005
  0.11459999999999998          7.2658171884807522E-006
  0.11545000000000000         -3.7899378645163208E-006
  0.11629999999999999         -1.5207575595270234E-005
  0.11715000000000000         -2.6293379134932552E-005
  0.11799999999999999         -3.6347851372862722E-005
  0.11884999999999998         -4.4714712351691150E-005
  0.11970000000000000         -5.0828107032609882E-005
  0.12054999999999999         -5.4254666604400062E-005
  0.12139999999999998         -5.4725145263779692E-005
  0.12225000000000000         -5.2154040409053554E-005
  0.12309999999999999         -4.6641929437414838E-005
  0.12395000000000000         -3.8465012631657837E-005
  0.12479999999999999         -2.8050994522852273E-005
  0.12564999999999998         -1.5942922533951816E-005
  0.12650000000000000         -2.7566461828513190E-006
  0.12734999999999999          1.0864313690849510E-005
  0.12819999999999998          2.4287644813995858E-005
  0.12905000000000000          3.6934759368903976E-005
  0.12989999999999999          4.8323857010572891E-005
  0.13074999999999998          5.8090020144306492E-005
  0.13159999999999999          6.6006490491619588E-005
  0.13245000000000001          7.2004551239699744E-005
  0.13329999999999997          7.6162526849546242E-005
  0.13414999999999999          7.8717287491850013E-005
  0.13500000000000001          8.0049314368826251E-005
  0.13584999999999997          8.0649378496410585E-005
  0.13669999999999999          8.1102112632805233E-005
  0.13755000000000001          8.2064021972407393E-005
  0.13839999999999997          8.4225526061496841E-005
  0.13924999999999998          8.8316135026507675E-005
  0.14010000000000000          9.5080730297148944E-005
  0.14094999999999996          1.0527503202001110E-004
  0.14179999999999998          1.1964302300521045E-004
  0.14265000000000000          1.3896166671956825E-004
  0.14350000000000002          1.6403786523502915E-004
  0.14434999999999998          1.9567531929170698E-004
  0.14520000000000000          2.3466213614463334E-004
  0.14605000000000001          2.8186486233079363E-004
  0.14689999999999998          3.3818940527302393E-004
  0.14774999999999999          4.0453892386385507E-004
  0.14860000000000001          4.8193689590361440E-004
  0.14944999999999997          5.7155087633904516E-004
  0.15029999999999999          6.7478735186764639E-004
  0.15115000000000001          7.9324445900222904E-004
  0.15199999999999997          9.2877540422517239E-004
  0.15284999999999999          1.0835744764316987E-003
  0.15370000000000000          1.2602754713756633E-003
  0.15454999999999997          1.4619460531021971E-003
  0.15539999999999998          1.6920562852620058E-003
  0.15625000000000000          1.9543587767005830E-003
  0.15709999999999996          2.2534121784550535E-003
  0.15794999999999998          2.5941420365384340E-003
  0.15880000000000000          2.9821353311277783E-003
  0.15965000000000001          3.4233895926439615E-003
  0.16049999999999998          3.9242068178418172E-003
  0.16134999999999999          4.4913121421798954E-003
  0.16220000000000001          5.1313039441231063E-003
  0.16304999999999997          5.8515382602740765E-003
  0.16389999999999999          6.6587366397469396E-003
  0.16475000000000001          7.5605576943408737E-003
  0.16559999999999997          8.5641855311969599E-003
  0.16644999999999999          9.6775902232675588E-003
  0.16730000000000000          1.0908115300611958E-002
  0.16814999999999997          1.2264214076016616E-002
  0.16899999999999998          1.3754539401516531E-002
  0.16985000000000000          1.5387624920383262E-002
  0.17069999999999996          1.7173363617348981E-002
  0.17154999999999998          1.9122130089759371E-002
  0.17240000000000000          2.1242452840583143E-002
  0.17325000000000002          2.3544871085594568E-002
  0.17409999999999998          2.6038181703744792E-002
  0.17494999999999999          2.8729473932975088E-002
  0.17580000000000001          3.1626060547971818E-002
  0.17664999999999997          3.4735358816768078E-002
  0.17749999999999999          3.8063782648481620E-002
  0.17835000000000001          4.1610446246897824E-002
  0.17919999999999997          4.5374131914962548E-002
  0.18004999999999999          4.9351391267172542E-002
  0.18090000000000001          5.3538415727052896E-002
  0.18174999999999997          5.7919964667765458E-002
  0.18259999999999998          6.2481741109724924E-002
  0.18345000000000000          6.7203462792879476E-002
  0.18429999999999996          7.2060578762825622E-002
  0.18514999999999998          7.7023030808017659E-002
  0.18600000000000000          8.2055028370233082E-002
  0.18684999999999996          8.7121393123107710E-002
  0.18769999999999998          9.2175105762967183E-002
  0.18855000000000000          9.7156726462461374E-002
  0.18940000000000001         0.10201916436849548
  0.19024999999999997         0.10669542283643113
  0.19109999999999999         0.11111927149642625
  0.19195000000000001         0.11520801302992523
  0.19279999999999997         0.11887191126265650
  0.19364999999999999         0.12201415531604470
  0.19450000000000001         0.12455045726972455
  0.19534999999999997         0.12638331206342407
  0.19619999999999999         0.12739183447834421
  0.19705000000000000         0.12745363221499698
  0.19789999999999996         0.12642779641349353
  0.19874999999999998         0.12421522220103652
  0.19960000000000000         0.12069951587442683
  0.20044999999999996         0.11573120213072378
  0.20129999999999998         0.10917211548409927
  0.20215000000000000         0.10091241101641860
  0.20300000000000001          9.0837203593384888E-002
  0.20384999999999998          7.8868679729203930E-002
  0.20469999999999999          6.4875707263273033E-002
  0.20555000000000001          4.8784356451989100E-002
  0.20639999999999997          3.0505484980414846E-002
  0.20724999999999999          1.0022347991051714E-002
  0.20810000000000001         -1.2703241853073088E-002
  0.20894999999999997         -3.7690501892202855E-002
  0.20979999999999999         -6.4919198422552407E-002
  0.21065000000000000         -9.4326233043261598E-002
  0.21149999999999997        -0.12584661076865572
  0.21234999999999998        -0.15937421658188308
  0.21320000000000000        -0.19479448139241723
  0.21404999999999996        -0.23189772913216158
  0.21489999999999998        -0.27048244302940194
  0.21575000000000000        -0.31033441050838528
  0.21659999999999996        -0.35115097631831593
  0.21744999999999998        -0.39261147084594922
  0.21829999999999999        -0.43435098174055925
  0.21915000000000001        -0.47601670755193609
  0.21999999999999997        -0.51717184968218066
  0.22084999999999999        -0.55737145213597694
  0.22170000000000001        -0.59613325434104492
  0.22254999999999997        -0.63292540217177029
  0.22339999999999999        -0.66722035347747455
  0.22425000000000000        -0.69860550886417228
  0.22509999999999997        -0.72657681961291509
  0.22594999999999998        -0.75050168252563343
  0.22680000000000000        -0.76981775801878460
  0.22764999999999996        -0.78403194859028658
  0.22849999999999998        -0.79270782053099376
  0.22935000000000000        -0.79543434981386874
  0.23019999999999996        -0.79184090956703967
  0.23104999999999998        -0.78153328487595508
  0.23190000000000000        -0.76415182453569419
  0.23275000000000001        -0.73944487051992780
  0.23359999999999997        -0.70725428225183273
  0.23444999999999999        -0.66752161929284370
  0.23530000000000001        -0.62022737176889597
  0.23614999999999997        -0.56538837943811648
  0.23699999999999999        -0.50311188065472234
  0.23785000000000001        -0.43370192471306679
  0.23869999999999997        -0.35752789277297858
  0.23954999999999999        -0.27495648062380046
  0.24040000000000000        -0.18640635662679070
  0.24124999999999996         -9.2497399625272730E-002
  0.24209999999999998          5.9999926761209743E-003
  0.24295000000000000         0.10831047263955051
  0.24379999999999996         0.21365812385201716
  0.24464999999999998         0.32122013546741857
  0.24550000000000000         0.43002138979731425
  0.24634999999999996         0.53902926401121753
  0.24719999999999998         0.64717457962807323
  0.24804999999999999         0.75340714207275550
  0.24890000000000001         0.85668734828416127
  0.24974999999999997         0.95597032612366262
  0.25059999999999999          1.0502232470455413
  0.25145000000000001          1.1384313370506181
  0.25229999999999997          1.2195796814951496
  0.25314999999999999          1.2927377834222691
  0.25400000000000000          1.3570671189679344
  0.25484999999999997          1.4118974042944457
  0.25569999999999998          1.4564999565448147
  0.25655000000000000          1.4901878019313730
  0.25739999999999996          1.5125048162173456
  0.25824999999999998          1.5232105803396252
  0.25910000000000000          1.5220690407799764
  0.25994999999999996          1.5089244249477600
  0.26079999999999998          1.4836464515840690
  0.26164999999999999          1.4464611452149321
  0.26249999999999996          1.3978058583202277
  0.26334999999999997          1.3380625478880324
  0.26419999999999999          1.2676571725412558
  0.26505000000000001          1.1870235426801297
  0.26589999999999997          1.0971393193083450
  0.26674999999999999         0.99894750499504315
  0.26760000000000000         0.89332850109690409
  0.26844999999999997         0.78111338648345408
  0.26929999999999998         0.66325430385677231
  0.27015000000000000         0.54111616103389026
  0.27099999999999996         0.41601993149721744
  0.27184999999999998         0.28901526009372697
  0.27270000000000000         0.16107805430358924
  0.27354999999999996          3.3344434767115627E-002
  0.27439999999999998         -9.2815862601388410E-002
  0.27524999999999999        -0.21614470431468646
  0.27609999999999996        -0.33559524027644061
  0.27694999999999997        -0.45037075317641551
  0.27779999999999999        -0.55949611338183258
  0.27865000000000001        -0.66201728391363468
  0.27949999999999997        -0.75704245033251993
  0.28034999999999999        -0.84395293514176983
  0.28120000000000001        -0.92228653671801342
  0.28204999999999997        -0.99158896468014279
  0.28289999999999998         -1.0514305669157127
  0.28375000000000000         -1.1013819508928990
  0.28459999999999996         -1.1413436217005237
  0.28544999999999998         -1.1713312934787758
  0.28630000000000000         -1.1914459528266426
  0.28714999999999996         -1.2018331128688562
  0.28799999999999998         -1.2026464420523681
  0.28885000000000000         -1.1941744979436890
  0.28969999999999996         -1.1768911974854313
  0.29054999999999997         -1.1513629733504507
  0.29139999999999999         -1.1181883849853482
  0.29224999999999995         -1.0779492281239904
  0.29309999999999997         -1.0312610546304544
  0.29394999999999999        -0.97885711122244479
  0.29480000000000001        -0.92149907502253325
  0.29564999999999997        -0.85994491471277967
  0.29649999999999999        -0.79491498665239779
  0.29735000000000000        -0.72709920192273547
  0.29819999999999997        -0.65720611463760015
  0.29904999999999998        -0.58600733836407515
  0.29990000000000000        -0.51427923664555342
  0.30074999999999996        -0.44270228983787141
  0.30159999999999998        -0.37184262775540866
  0.30245000000000000        -0.30222792451179636
  0.30329999999999996        -0.23444861228338476
  0.30414999999999998        -0.16907731736047366
  0.30499999999999999        -0.10656191559859998
  0.30584999999999996         -4.7164846046308925E-002
  0.30669999999999997          8.8479067698038344E-003
  0.30754999999999999          6.1192787782983565E-002
  0.30840000000000001         0.10956582193838675
  0.30924999999999997         0.15376516651413377
  0.31009999999999999         0.19371785682590603
  0.31095000000000000         0.22942749488637437
  0.31179999999999997         0.26090846640821191
  0.31264999999999998         0.28813893378692579
  0.31350000000000000         0.31115181843201767
  0.31434999999999996         0.33004278478704707
  0.31519999999999998         0.34500560901342847
  0.31605000000000000         0.35625925515037765
  0.31689999999999996         0.36395647562101191
  0.31774999999999998         0.36820417538187111
  0.31859999999999999         0.36924643640893218
  0.31944999999999996         0.36748440299200869
  0.32029999999999997         0.36326622143498277
  0.32114999999999999         0.35672600399257676
  0.32199999999999995         0.34794576013816603
  0.32284999999999997         0.33719941595621999
  0.32369999999999999         0.32494382157971902
  0.32455000000000001         0.31148763477915631
  0.32539999999999997         0.29688819549467022
  0.32624999999999998         0.28125239500432075
  0.32710000000000000         0.26493845197636906
  0.32794999999999996         0.24834746914146077
  0.32879999999999998         0.23162975552110587
  0.32965000000000000         0.21476313036502387
  0.33049999999999996         0.19783857500899205
  0.33134999999999998         0.18111864150702361
  0.33220000000000000         0.16482075214488878
  0.33304999999999996         0.14898155341952551
  0.33389999999999997         0.13361560096128081
  0.33474999999999999         0.11885511438539123
  0.33559999999999995         0.10484347184695858
  0.33644999999999997          9.1627554441176484E-002
  0.33729999999999999          7.9172483040146346E-002
  0.33815000000000001          6.7484518757005549E-002
  0.33899999999999997          5.6629187138684971E-002
  0.33984999999999999          4.6658719539288802E-002
  0.34070000000000000          3.7540909409425727E-002
  0.34154999999999996          2.9182892754212007E-002
  0.34239999999999998          2.1516515390245752E-002
  0.34325000000000000          1.4577708545492514E-002
  0.34409999999999996          8.4345322596211646E-003
  0.34494999999999998          3.0478685584043866E-003
  0.34580000000000000         -1.7332300994639342E-003
  0.34664999999999996         -6.0254371772783654E-003
  0.34749999999999998         -9.7856430579677106E-003
  0.34834999999999999         -1.2931949504098273E-002
  0.34919999999999995         -1.5511059968531044E-002
  0.35004999999999997         -1.7681932871795848E-002
  0.35089999999999999         -1.9564075326716255E-002
  0.35174999999999995         -2.1143808987534232E-002
  0.35259999999999997         -2.2372904514780096E-002
  0.35344999999999999         -2.3291709926663916E-002
  0.35430000000000000         -2.4000135399664155E-002
  0.35514999999999997         -2.4576057595656880E-002