 -0.12000000000000000          0.0000000000000000
 -0.11914999999999999          0.0000000000000000
 -0.11830000000000000          0.0000000000000000
 -0.11745000000000000          0.0000000000000000
 -0.11660000000000000          0.0000000000000000
 -0.11574999999999999          0.0000000000000000
 -0.11490000000000000          0.0000000000000000
 -0.11405000000000000          0.0000000000000000
 -0.11320000000000000          0.0000000000000000
 -0.11234999999999999          6.9006075210472156E-030
 -0.11150000000000000          1.4386942554264188E-028
 -0.11065000000000000          1.4305479426898108E-027
 -0.10979999999999999          9.1552369899400699E-027
 -0.10894999999999999          4.2414541761182790E-026
 -0.10810000000000000          1.5013112001152047E-025
 -0.10725000000000000          4.1206624081370633E-025
 -0.10639999999999999          8.4667076989324124E-025
 -0.10554999999999999          1.0674621872781593E-024
 -0.10470000000000000         -4.7534138863658312E-025
 -0.10385000000000000         -7.5259209932608112E-024
 -0.10299999999999999         -2.6266620774504826E-023
 -0.10214999999999999         -6.2139452422447680E-023
 -0.10130000000000000         -1.0920778614514798E-022
 -0.10045000000000000         -1.2909627327327471E-022
  -9.9599999999999994E-002    -2.3700991339159716E-023
  -9.8750000000000004E-002     3.7803462012950697E-022
  -9.7900000000000001E-002     1.2762199729618373E-021
  -9.7049999999999997E-002     2.7396284821402751E-021
  -9.6199999999999994E-002     4.3864719479565810E-021
  -9.5349999999999990E-002     4.9486949705076809E-021
  -9.4500000000000001E-002     1.9350845242541036E-021
  -9.3649999999999997E-002    -8.1596469564113533E-021
  -9.2799999999999994E-002    -2.8478623396901734E-020
  -9.1950000000000004E-002    -5.8736498187432598E-020
  -9.1100000000000000E-002    -9.0568782514692689E-020
  -9.0249999999999997E-002    -1.0271641502837047E-019
  -8.9399999999999993E-002    -5.9294946058118067E-020
  -8.8549999999999990E-002     8.3970580905868988E-020
  -8.7700000000000000E-002     3.6054343473880859E-019
  -8.6849999999999997E-002     7.5892377019342864E-019
  -8.5999999999999993E-002     1.1789172904223625E-018
  -8.5150000000000003E-002     1.3949879385021903E-018
  -8.4300000000000000E-002     1.0554818749768163E-018
  -8.3449999999999996E-002    -2.4689894843028308E-019
  -8.2600000000000007E-002    -2.8055148347409294E-018
  -8.1749999999999989E-002    -6.5326993912874440E-018
  -8.0900000000000000E-002    -1.0650284428434224E-017
  -8.0049999999999996E-002    -1.3461369520151101E-017
  -7.9199999999999993E-002    -1.2386773319134753E-017
  -7.8350000000000003E-002    -4.4637502613312128E-018
  -7.7499999999999999E-002     1.2567547667150153E-017
  -7.6649999999999996E-002     3.8649729804572717E-017
  -7.5800000000000006E-002     6.9615631628442863E-017
  -7.4949999999999989E-002     9.5897806293683570E-017
  -7.4099999999999999E-002     1.0266785687799449E-016
  -7.3249999999999996E-002     7.2333882300234806E-017
  -7.2399999999999992E-002    -1.0078060888975014E-017
  -7.1550000000000002E-002    -1.4901150188824380E-016
  -7.0699999999999999E-002    -3.2955696690992280E-016
  -6.9849999999999995E-002    -5.1069772757962408E-016
  -6.9000000000000006E-002    -6.2454431198688592E-016
  -6.8149999999999988E-002    -5.8540000954046940E-016
  -6.7299999999999999E-002    -3.1087678493187725E-016
  -6.6449999999999995E-002     2.4606187864609100E-016
  -6.5599999999999992E-002     1.0599308463860674E-015
  -6.4750000000000002E-002     2.0011319382945370E-015
  -6.3899999999999998E-002     2.8240959400168250E-015
  -6.3049999999999995E-002     3.1893396964159737E-015
  -6.2199999999999998E-002     2.7286413132639036E-015
  -6.1350000000000002E-002     1.1520581071731761E-015
  -6.0499999999999998E-002    -1.6192477524676086E-015
  -5.9650000000000002E-002    -5.3262016181718592E-015
  -5.8799999999999998E-002    -9.2947863122328475E-015
  -5.7950000000000002E-002    -1.2455048133852755E-014
  -5.7099999999999998E-002    -1.3490972859985122E-014
  -5.6249999999999994E-002    -1.1128961772470310E-014
  -5.5400000000000005E-002    -4.5327901251129767E-015
  -5.4550000000000001E-002     6.2719468840067187E-015
  -5.3699999999999998E-002     2.0058354503725220E-014
  -5.2849999999999994E-002     3.4274536380908871E-014
  -5.2000000000000005E-002     4.5249339478186133E-014
  -5.1150000000000001E-002     4.8785128174804659E-014
  -5.0299999999999997E-002     4.1104113633779372E-014
  -4.9449999999999994E-002     2.0004716035215593E-014
  -4.8600000000000004E-002    -1.4018878743386343E-014
  -4.7750000000000001E-002    -5.7006060752489348E-014
  -4.6899999999999997E-002    -1.0141845202379660E-013
  -4.6049999999999994E-002    -1.3691211589564074E-013
  -4.5200000000000004E-002    -1.5204801944080866E-013
  -4.4350000000000001E-002    -1.3676761629182937E-013
  -4.3499999999999997E-002    -8.5219447407226377E-014
  -4.2649999999999993E-002     1.6702008363709236E-015
  -4.1800000000000004E-002     1.1457377129740518E-013
  -4.0950000000000000E-002     2.3570806445426423E-013
  -4.0099999999999997E-002     3.4073213081775155E-013
  -3.9249999999999993E-002     4.0259790498456803E-013
  -3.8400000000000004E-002     3.9689355995020069E-013
  -3.7550000000000000E-002     3.0777818595938791E-013
  -3.6699999999999997E-002     1.3329505382725647E-013
  -3.5850000000000007E-002    -1.1123575456604999E-013
  -3.5000000000000003E-002    -3.9284631724918274E-013
  -3.4150000000000000E-002    -6.6419367064196625E-013
  -3.3299999999999996E-002    -8.7040441153993687E-013
  -3.2450000000000007E-002    -9.5863696692863019E-013
  -3.1600000000000003E-002    -8.8880627248554178E-013
  -3.0750000000000000E-002    -6.4345192094758528E-013
  -2.9899999999999996E-002    -2.3464835926834366E-013
  -2.9050000000000006E-002     2.9379717984318243E-013
  -2.8200000000000003E-002     8.6985731871747476E-013
  -2.7349999999999999E-002     1.4024690550046825E-012
  -2.6499999999999996E-002     1.7952301455772669E-012
  -2.5650000000000006E-002     1.9624698429729583E-012
  -2.4800000000000003E-002     1.8449379986673996E-012
  -2.3949999999999999E-002     1.4222567305841975E-012
  -2.3099999999999996E-002     7.1973281918873815E-013
  -2.2250000000000006E-002    -1.9192159189211793E-013
  -2.1400000000000002E-002    -1.2041576774578521E-012
  -2.0549999999999999E-002    -2.1843357458182897E-012
  -1.9699999999999995E-002    -2.9934470128414287E-012
  -1.8850000000000006E-002    -3.5049718499358200E-012
  -1.8000000000000002E-002    -3.6219622628574973E-012
  -1.7149999999999999E-002    -3.2899534760408773E-012
  -1.6299999999999995E-002    -2.5042330646448538E-012
  -1.5450000000000005E-002    -1.3111320627556201E-012
  -1.4600000000000002E-002     1.9597673794279429E-013
  -1.3749999999999998E-002     1.8845974010183082E-012
  -1.2899999999999995E-002     3.5934004295782798E-012
  -1.2050000000000005E-002     5.1436443285099791E-012
  -1.1200000000000002E-002     6.3511735028768371E-012
  -1.0349999999999998E-002     7.0391891364423025E-012
  -9.5000000000000084E-003     7.0525093948403909E-012
  -8.6500000000000049E-003     6.2740549977161345E-012
  -7.8000000000000014E-003     4.6436642726610152E-012
  -6.9499999999999978E-003     2.1781174350783211E-012
  -6.1000000000000082E-003    -1.0102787515971437E-012
  -5.2500000000000047E-003    -4.7006765401454211E-012
  -4.4000000000000011E-003    -8.5611983283750344E-012
  -3.5499999999999976E-003    -1.2161797163806278E-011
  -2.7000000000000079E-003    -1.5005820932196021E-011
  -1.8500000000000044E-003    -1.6580944574868494E-011
  -1.0000000000000009E-003    -1.6426468470482172E-011
  -1.4999999999999736E-004    -1.4210021724501461E-011
   6.9999999999999230E-004    -9.8032038403150680E-012
   1.5499999999999958E-003    -3.3434560186140490E-012
   2.3999999999999994E-003     4.7308533695347386E-012
   3.2500000000000029E-003     1.3683098546262354E-011
   4.0999999999999925E-003     2.2525498027597202E-011
   4.9499999999999961E-003     3.0111192366983057E-011
   5.7999999999999996E-003     3.5264684618974624E-011
   6.6499999999999893E-003     3.6937090380647797E-011
   7.5000000000000067E-003     3.4366898596345380E-011
   8.3499999999999963E-003     2.7223657820114220E-011
   9.1999999999999860E-003     1.5711858464596402E-011
   1.0050000000000003E-002     6.1560259845573701E-013
   1.0899999999999993E-002    -1.6728789167975915E-011
   1.1750000000000010E-002    -3.4536009460762847E-011
   1.2600000000000000E-002    -5.0744334497801640E-011
   1.3449999999999990E-002    -6.3240865920112423E-011
   1.4300000000000007E-002    -7.0114417115009720E-011
   1.5149999999999997E-002    -6.9905853624196731E-011
   1.5999999999999986E-002    -6.1824082920000298E-011
   1.6850000000000004E-002    -4.5899075063842517E-011
   1.7699999999999994E-002    -2.3049914326193113E-011
   1.8549999999999983E-002     4.9444423379489220E-012
   1.9400000000000001E-002     3.5572792678032312E-011
   2.0249999999999990E-002     6.5807643665822187E-011
   2.1100000000000008E-002     9.2389751079357338E-011
   2.1949999999999997E-002     1.1215408345939314E-010
   2.2799999999999987E-002     1.2236601735520325E-010
   2.3650000000000004E-002     1.2103509556280714E-010
   2.4499999999999994E-002     1.0717560696889541E-010
   2.5349999999999984E-002     8.0986741696599912E-011
   2.6200000000000001E-002     4.3930815676344508E-011
   2.7049999999999991E-002    -1.3047522933728436E-012
   2.7900000000000008E-002    -5.0967633368012257E-011
   2.8749999999999998E-002    -1.0051886219739154E-010
   2.9599999999999987E-002    -1.4501414569238451E-010
   3.0450000000000005E-002    -1.7956124035216544E-010
   3.1299999999999994E-002    -1.9981564686998726E-010
   3.2149999999999984E-002    -2.0246751716460277E-010
   3.3000000000000002E-002    -1.8566775051679840E-010
   3.3849999999999991E-002    -1.4934155119874164E-010
   3.4700000000000009E-002    -9.5345290239496285E-011
   3.5549999999999998E-002    -2.7435650830255909E-011
   3.6399999999999988E-002     4.8960305917907242E-011
   3.7250000000000005E-002     1.2716374126554458E-010
   3.8099999999999995E-002     1.9981871622568811E-010
   3.8949999999999985E-002     2.5957146033582737E-010
   3.9800000000000002E-002     2.9978934259464660E-010
   4.0649999999999992E-002     3.1524948002593132E-010
   4.1500000000000009E-002     3.0272762744177882E-010
   4.2349999999999999E-002     2.6142747008399993E-010
   4.3199999999999988E-002     1.9320298688939979E-010
   4.4050000000000006E-002     1.0254497127929841E-010
   4.4899999999999995E-002    -3.6791827202462864E-012
   4.5749999999999985E-002    -1.1672260544052831E-010
   4.6600000000000003E-002    -2.2666303526385978E-010
   4.7449999999999992E-002    -3.2326342419266069E-010
   4.8299999999999982E-002    -3.9691954327690022E-010
   4.9149999999999999E-002    -4.3961041301696671E-010
   4.9999999999999989E-002    -4.4575684684031456E-010
   5.0850000000000006E-002    -4.1289291135322989E-010
   5.1699999999999996E-002    -3.4206559551046040E-010
   5.2549999999999986E-002    -2.3790084422038467E-010
   5.3400000000000003E-002    -1.0830809509170904E-010
   5.4249999999999993E-002     3.6162853578562826E-011
   5.5099999999999982E-002     1.8325574888554182E-010
   5.5950000000000000E-002     3.2013804091441012E-010
   5.6799999999999989E-002     4.3460642046161438E-010
   5.7650000000000007E-002     5.1623727392440405E-010
   5.8499999999999996E-002     5.5736049040659147E-010
   5.9349999999999986E-002     5.5375854330792729E-010
   6.0200000000000004E-002     5.0503115905627094E-010
   6.1049999999999993E-002     4.1460228625800790E-010
   6.1899999999999983E-002     2.8938937014382159E-010
   6.2750000000000000E-002     1.3918226708114890E-010
   6.3599999999999990E-002    -2.4198305766962034E-011
   6.4450000000000007E-002    -1.8788251329519057E-010
   6.5299999999999997E-002    -3.3899161762385582E-010
   6.6149999999999987E-002    -4.6565802999261476E-010
   6.7000000000000004E-002    -5.5795185257140177E-010
   6.7849999999999994E-002    -6.0865057792266644E-010
   6.8699999999999983E-002    -6.1379479546723118E-010
   6.9550000000000001E-002    -5.7298757402738403E-010
   7.0399999999999990E-002    -4.8941080826125742E-010
   7.1249999999999980E-002    -3.6955195771146745E-010
   7.2099999999999997E-002    -2.2266387121203503E-010
   7.2949999999999987E-002    -6.0001518688164726E-011
   7.3800000000000004E-002     1.0609331094664324E-010
   7.4649999999999994E-002     2.6317779731706960E-010
   7.5499999999999984E-002     3.9967534002163194E-010
   7.6350000000000001E-002     5.0574406007366203E-010
   7.7199999999999991E-002     5.7398301481473523E-010
   7.8049999999999981E-002     5.9993194998793145E-010
   7.8899999999999998E-002     5.8234392905947404E-010
   7.9749999999999988E-002     5.2322708847662430E-010
   8.0600000000000005E-002     4.2766130065539293E-010
   8.1449999999999995E-002     3.0340835984856952E-010
   8.2299999999999984E-002     1.6033276412662475E-010
   8.3150000000000002E-002     9.6617821390009326E-012
   8.3999999999999991E-002    -1.3687912754469532E-010
   8.4849999999999981E-002    -2.6800100128698303E-010
   8.5699999999999998E-002    -3.7378711644032026E-010
   8.6549999999999988E-002    -4.4654628615320730E-010
   8.7400000000000005E-002    -4.8149203208994730E-010
   8.8249999999999995E-002    -4.7716790587036140E-010
   8.9099999999999985E-002    -4.3555966591616214E-010
   8.9950000000000002E-002    -3.6187204162050260E-010
   9.0799999999999992E-002    -2.6399017403905259E-010
   9.1649999999999981E-002    -1.5168777273253533E-010
   9.2499999999999999E-002    -3.5673067286329006E-011
   9.3349999999999989E-002     7.3419992285859014E-011
   9.4200000000000006E-002     1.6599048118697790E-010
   9.5049999999999996E-002     2.3429160720435164E-010
   9.5899999999999985E-002     2.7305477047195953E-010
   9.6750000000000003E-002     2.7988288632790923E-010
   9.7599999999999992E-002     2.5540407682300507E-010
   9.8449999999999982E-002     2.0318989839066079E-010
   9.9299999999999999E-002     1.2945138463060892E-010
  0.10014999999999999          4.2526852088586145E-011
  0.10099999999999998         -4.7818237796099591E-011
  0.10185000000000000         -1.3124909026050483E-010
  0.10269999999999999         -1.9782720755000415E-010
  0.10355000000000000         -2.3901357229322230E-010
  0.10439999999999999         -2.4861205569490801E-010
  0.10524999999999998         -2.2354458874545369E-010
  0.10610000000000000         -1.6435069362954970E-010
  0.10694999999999999         -7.5322863473977693E-011
  0.10779999999999998          3.5767263351681899E-011
  0.10865000000000000          1.5834661607063527E-010
  0.10949999999999999          2.8005987617546131E-010
  0.11035000000000000          3.8801978237759690E-010
  0.11119999999999999          4.7014442381996477E-010
  0.11204999999999998          5.1642981302779405E-010
  0.11290000000000000          5.2001690530082222E-010
  0.11374999999999999          4.7794561389686087E-010
  0.11459999999999998          3.9152594526146323E-010
  0.11545000000000000          2.6630370662323924E-010
  0.11629999999999999          1.1163775975364864E-010
  0.11715000000000000         -6.0061589429017125E-011
  0.11799999999999999         -2.3436948381848144E-010
  0.11884999999999998         -3.9607073236899099E-010
  0.11970000000000000         -5.3047833004164050E-010
  0.12054999999999999         -6.2475144016567636E-010
  0.12139999999999998         -6.6909920342518147E-010
  0.12225000000000000         -6.5776871499938691E-010
  0.12309999999999999         -5.8970442472216038E-010
  0.12395000000000000         -4.6879740760279203E-010
  0.12479999999999999         -3.0366363690747464E-010
  0.12564999999999998         -1.0692392553783391E-010
  0.12650000000000000          1.0597034797652794E-010
  0.12734999999999999          3.1828425831640447E-010
  0.12819999999999998          5.1375421693606313E-010
  0.12905000000000000          6.7837683758249081E-010
  0.12989999999999999          8.0199978809887955E-010
  0.13074999999999998          8.7954199328067712E-010
  0.13159999999999999          9.1162045679591898E-010
  0.13245000000000001          9.0454789347926068E-010
  0.13329999999999997          8.6964277948010632E-010
  0.13414999999999999          8.2193045199398588E-010
  0.13500000000000001          7.7837512386897718E-010
  0.13584999999999997          7.5592220840757551E-010
  0.13669999999999999          7.6951608113849826E-010
  0.13755000000000001          8.3046791509571001E-010
  0.13839999999999997          9.4530257891874212E-010
  0.13924999999999998          1.1153159645869614E-009
  0.14010000000000000          1.3368590035954625E-009
  0.14094999999999996          1.6023429521320276E-009
  0.14179999999999998          1.9018097380378864E-009
  0.14265000000000000          2.2248616682618937E-009
  0.14350000000000002          2.5625709230031137E-009
  0.14434999999999998          2.9094034275967430E-009
  0.14520000000000000          3.2643604435166628E-009
  0.14605000000000001          3.6317930887548130E-009
  0.14689999999999998          4.0211354906229584E-009
  0.14774999999999999          4.4459592286069421E-009
  0.14860000000000001          4.9222773479471570E-009
  0.14944999999999997          5.4665070734826098E-009
  0.15029999999999999          6.0927742831821124E-009
  0.15115000000000001          6.8115243314611369E-009
  0.15199999999999997          7.6274368485145397E-009
  0.15284999999999999          8.5390799319711116E-009
  0.15370000000000000          9.5391642694692083E-009
  0.15454999999999997          1.0616215550446819E-008
  0.15539999999999998          1.1756875174640496E-008
  0.15625000000000000          1.2948248253084260E-008
  0.15709999999999996          1.4181506672920596E-008
  0.15794999999999998          1.5455378434258886E-008
  0.15880000000000000          1.6778175823256404E-008
  0.15965000000000001          1.8169773101903040E-008
  0.16049999999999998          1.9662014151804337E-008
  0.16134999999999999          2.1298885271013870E-008
  0.16220000000000001          2.3135595679897196E-008
  0.16304999999999997          2.5235806840842489E-008
  0.16389999999999999          2.7669208048721654E-008
  0.16475000000000001          3.0510685006912844E-008
  0.16559999999999997          3.3836941595583605E-008
  0.16644999999999999          3.7724120841334003E-008
  0.16730000000000000          4.2250103444159117E-008
  0.16814999999999997          4.7491694432110564E-008
  0.16899999999999998          5.3527239909371945E-008
  0.16985000000000000          6.0438308910976689E-008
  0.17069999999999996          6.8310758995567577E-008
  0.17154999999999998          7.7236745590257378E-008
  0.17240000000000000          8.7328782844379329E-008
  0.17325000000000002          9.8706847527817741E-008
  0.17409999999999998          1.1151943859804635E-007
  0.17494999999999999          1.2594187485903567E-007
  0.17580000000000001          1.4218904117193299E-007
  0.17664999999999997          1.6050559299439762E-007
  0.17749999999999999          1.8118775321572137E-007
  0.17835000000000001          2.0456966644927783E-007
  0.17919999999999997          2.3103598318596092E-007
  0.18004999999999999          2.6102269657650802E-007
  0.18090000000000001          2.9499759609744224E-007
  0.18174999999999997          3.3347366299136692E-007
  0.18259999999999998          3.7699178059959735E-007
  0.18345000000000000          4.2612019033050231E-007
  0.18429999999999996          4.8143953025735888E-007
  0.18514999999999998          5.4357137691854403E-007
  0.18600000000000000          6.1311022691643792E-007
  0.18684999999999996          6.9068949603537339E-007
  0.18769999999999998          7.7693873850889533E-007
  0.18855000000000000          8.7251700107661800E-007
  0.18940000000000001          9.7808532988715398E-007
  0.19024999999999997          1.0943564740231396E-006
  0.19109999999999999          1.2220296948426092E-006
  0.19195000000000001          1.3618481639065977E-006
  0.19279999999999997          1.5145439832320140E-006
  0.19364999999999999          1.6808751601262943E-006
  0.19450000000000001          1.8615593175615886E-006
  0.19534999999999997          2.0572660206747623E-006
  0.19619999999999999          2.2685802892993475E-006
  0.19705000000000000          2.4960256060919525E-006
  0.19789999999999996          2.7400001760563542E-006
  0.19874999999999998          3.0007041828890725E-006
  0.19960000000000000          3.2781790438866865E-006
  0.20044999999999996          3.5722697592530805E-006
  0.20129999999999998          3.8826265611109808E-006
  0.20215000000000000          4.2086570922044050E-006
  0.20300000000000001          4.5495011226917361E-006
  0.20384999999999998          4.9040251876449088E-006
  0.20469999999999999          5.2708568294876519E-006
  0.20555000000000001          5.6483165679538475E-006
  0.20639999999999997          6.0343843914518438E-006
  0.20724999999999999          6.4269231105037750E-006
  0.20810000000000001          6.8233257412851270E-006
  0.20894999999999997          7.2207052461082719E-006
  0.20979999999999999          7.6159950235864711E-006
  0.21065000000000000          8.0057599308394340E-006
  0.21149999999999997          8.3863707293800483E-006
  0.21234999999999998          8.7539490062178554E-006
  0.21320000000000000          9.1042981431508294E-006
  0.21404999999999996          9.4332800009017532E-006
  0.21489999999999998          9.7363246354795612E-006
  0.21575000000000000          1.0008877464263943E-005
  0.21659999999999996          1.0246140180435371E-005
  0.21744999999999998          1.0443480451098283E-005
  0.21829999999999999          1.0595968474321372E-005
  0.21915000000000001          1.0698904044708120E-005
  0.21999999999999997          1.0747693765448676E-005
  0.22084999999999999          1.0737845939638401E-005
  0.22170000000000001          1.0664989024532206E-005
  0.22254999999999997          1.0525316875085543E-005
  0.22339999999999999          1.0315158905018157E-005
  0.22425000000000000          1.0031191487475208E-005
  0.22509999999999997          9.6707527724042295E-006
  0.22594999999999998          9.2316286557967295E-006
  0.22680000000000000          8.7122956954382487E-006
  0.22764999999999996          8.1117409885093809E-006
  0.22849999999999998          7.4296766600855171E-006
  0.22935000000000000          6.6665517940850295E-006
  0.23019999999999996          5.8234167040059449E-006
  0.23104999999999998          4.9022000710519750E-006
  0.23190000000000000          3.9054017385951364E-006
  0.23275000000000001          2.8363759035545770E-006
  0.23359999999999997          1.6991189441747542E-006
  0.23444999999999999          4.9842950636688592E-007
  0.23530000000000001         -7.6012209347441694E-007
  0.23614999999999997         -2.0705234965228967E-006
  0.23699999999999999         -3.4260087315940978E-006
  0.23785000000000001         -4.8192516729193372E-006
  0.23869999999999997         -6.2422152681452340E-006
  0.23954999999999999         -7.6866858726270416E-006
  0.24040000000000000         -9.1435824592820442E-006
  0.24124999999999996         -1.0603970705971521E-005
  0.24209999999999998         -1.2058420966154707E-005
  0.24295000000000000         -1.3497155499931057E-005
  0.24379999999999996         -1.4910691689557105E-005
  0.24464999999999998         -1.6289116680275931E-005
  0.24550000000000000         -1.7622926216732483E-005
  0.24634999999999996         -1.8902835606778828E-005
  0.24719999999999998         -2.0119588537984984E-005
  0.24804999999999999         -2.1264392371052548E-005
  0.24890000000000001         -2.2328877916995896E-005
  0.24974999999999997         -2.3304885491493568E-005
  0.25059999999999999         -2.4185085483612755E-005
  0.25145000000000001         -2.4962640646674398E-005
  0.25229999999999997         -2.5631303576708096E-005
  0.25314999999999999         -2.6185685047914405E-005
  0.25400000000000000         -2.6621126120377320E-005
  0.25484999999999997         -2.6933749317596711E-005
  0.25569999999999998         -2.7120800299132748E-005
  0.25655000000000000         -2.7180224412862703E-005
  0.25739999999999996         -2.7110690968320175E-005
  0.25824999999999998         -2.6912393299164669E-005
  0.25910000000000000         -2.6585796625122527E-005
  0.25994999999999996         -2.6132759681555330E-005
  0.26079999999999998         -2.5555656463607949E-005
  0.26164999999999999         -2.4857810158813160E-005
  0.26249999999999996         -2.4043589005636314E-005
  0.26334999999999997         -2.3117954436562687E-005
  0.26419999999999999         -2.2086465929080760E-005
  0.26505000000000001         -2.0955805001955454E-005
  0.26589999999999997         -1.9732862841963927E-005
  0.26674999999999999         -1.8425102887558967E-005
  0.26760000000000000         -1.7040874354151719E-005
  0.26844999999999997         -1.5588693599670266E-005
  0.26929999999999998         -1.4077678175368984E-005
  0.27015000000000000         -1.2516998682669616E-005
  0.27099999999999996         -1.0916318319006818E-005
  0.27184999999999998         -9.2851578083239866E-006
  0.27270000000000000         -7.6330965085987179E-006
  0.27354999999999996         -5.9697363872387334E-006
  0.27439999999999998         -4.3046973973373413E-006
  0.27524999999999999         -2.6472924946518788E-006
  0.27609999999999996         -1.0069924542313793E-006
  0.27694999999999997          6.0755195066316506E-007
  0.27779999999999999          2.1876787418663412E-006
  0.27865000000000001          3.7253924921044860E-006
  0.27949999999999997          5.2124672422477072E-006
  0.28034999999999999          6.6418056718875368E-006
  0.28120000000000001          8.0067639522307884E-006
  0.28204999999999997          9.3013224478037970E-006
  0.28289999999999998          1.0519730141839620E-005
  0.28375000000000000          1.1657222330938453E-005
  0.28459999999999996          1.2709760447653008E-005
  0.28544999999999998          1.3673607838388593E-005
  0.28630000000000000          1.4546068510681067E-005
  0.28714999999999996          1.5325200784275504E-005
  0.28799999999999998          1.6009857654501186E-005
  0.28885000000000000          1.6599116218120141E-005
  0.28969999999999996          1.7093182027234283E-005
  0.29054999999999997          1.7492749555641000E-005
  0.29139999999999999          1.7798763692271126E-005
  0.29224999999999995          1.8013124341491244E-005
  0.29309999999999997          1.8137917137775649E-005
  0.29394999999999999          1.8175989483637812E-005
  0.29480000000000001          1.8130556055053549E-005
  0.29564999999999997          1.8005209569052231E-005
  0.29649999999999999          1.7804030777507944E-005
  0.29735000000000000          1.7531559505007387E-005
  0.29819999999999997          1.7192504670244550E-005
  0.29904999999999998          1.6791907557020894E-005
  0.29990000000000000          1.6335041979299047E-005
  0.30074999999999996          1.5827305204482156E-005
  0.30159999999999998          1.5274217791544934E-005
  0.30245000000000000          1.4681337183466438E-005
  0.30329999999999996          1.4054110993235873E-005
  0.30414999999999998          1.3398074645881828E-005
  0.30499999999999999          1.2718574054062367E-005
  0.30584999999999996          1.2020805337524077E-005
  0.30669999999999997          1.1309829401113978E-005
  0.30754999999999999          1.0590492975907685E-005
  0.30840000000000001          9.8673433925521717E-006
  0.30924999999999997          9.1447519913296755E-006
  0.31009999999999999          8.4268517811885936E-006
  0.31095000000000000          7.7175388378400826E-006
  0.31179999999999997          7.0204207046098115E-006
  0.31264999999999998          6.3387951606767357E-006
  0.31350000000000000          5.6757095688724436E-006
  0.31434999999999996          5.0337925076255762E-006
  0.31519999999999998          4.4154303023237802E-006
  0.31605000000000000          3.8225839792268346E-006
  0.31689999999999996          3.2568881054268996E-006
  0.31774999999999998          2.7197361770072724E-006
  0.31859999999999999          2.2120833089637240E-006
  0.31944999999999996          1.7347135150785122E-006
  0.32029999999999997          1.2882299140856209E-006
  0.32114999999999999          8.7280052047081078E-007
  0.32199999999999995          4.8847789272730221E-007
  0.32284999999999997          1.3507176857668228E-007
  0.32369999999999999         -1.8788734036392287E-007
  0.32455000000000001         -4.8110924282563774E-007
  0.32539999999999997         -7.4544000011343914E-007
  0.32624999999999998         -9.8200377189157089E-007
  0.32710000000000000         -1.1919320358562373E-006
  0.32794999999999996         -1.3765645213471895E-006
  0.32879999999999998         -1.5371383286268016E-006
  0.32965000000000000         -1.6749583369181436E-006
  0.33049999999999996         -1.7914206126564960E-006
  0.33134999999999998         -1.8878500745921886E-006
  0.33220000000000000         -1.9656374263386115E-006
  0.33304999999999996         -2.0261415692162940E-006
  0.33389999999999997         -2.0708603842781146E-006
  0.33474999999999999         -2.1012180984748129E-006
  0.33559999999999995         -2.1186732010193867E-006
  0.33644999999999997         -2.1246475693325901E-006
  0.33729999999999999         -2.1205035033221537E-006
  0.33815000000000001         -2.1074819749373883E-006
  0.33899999999999997         -2.0866996123423383E-006
  0.33984999999999999         -2.0592200976889690E-006
  0.34070000000000000         -2.0259623602777722E-006
  0.34154999999999996         -1.9878542642310763E-006
  0.34239999999999998         -1.9457192884206039E-006
  0.34325000000000000         -1.9003375778730535E-006