 -0.12000000000000000          0.0000000000000000
 -0.11914999999999999          0.0000000000000000
 -0.11830000000000000          0.0000000000000000
 -0.11745000000000000          1.2812890817883776E-009
 -0.11660000000000000          2.8775611822888224E-008
 -0.11574999999999999          1.6541565325419786E-007
 -0.11490000000000000          5.2083989177818296E-007
 -0.11405000000000000          1.0333687526273544E-006
 -0.11320000000000000          1.1202540428199383E-006
 -0.11234999999999999         -5.5640135323884012E-007
 -0.11150000000000000         -5.7164446824866095E-006
 -0.11065000000000000         -1.5063268534428414E-005
 -0.10979999999999999         -2.6008324736744513E-005
 -0.10894999999999999         -3.0629074476914430E-005
 -0.10810000000000000         -1.5842073731563899E-005
 -0.10725000000000000          3.2188332664988795E-005
 -0.10639999999999999          1.1878721938521835E-004
 -0.10554999999999999          2.2886918742772271E-004
 -0.10470000000000000          3.1794744658130282E-004
 -0.10385000000000000          3.1366597461775892E-004
 -0.10299999999999999          1.3435258390135177E-004
 -0.10214999999999999         -2.7429276376610265E-004
 -0.10130000000000000         -8.9217941436951385E-004
 -0.10045000000000000         -1.5848659371431400E-003
  -9.9599999999999994E-002    -2.0937796552388259E-003
  -9.8750000000000004E-002    -2.0772228333690067E-003
  -9.7900000000000001E-002    -1.2096583474277575E-003
  -9.7049999999999997E-002     6.7523920643841357E-004
  -9.6199999999999994E-002     3.4370307487203641E-003
  -9.5349999999999990E-002     6.5336477326141586E-003
  -9.4500000000000001E-002     9.0378273430978366E-003
  -9.3649999999999997E-002     9.8023282467273043E-003
  -9.2799999999999994E-002     7.7689096736823946E-003
  -9.1950000000000004E-002     2.3619227213510711E-003
  -9.1100000000000000E-002    -6.1414528092453265E-003
  -9.0249999999999997E-002    -1.6396802424850986E-002
  -8.9399999999999993E-002    -2.6051624339058378E-002
  -8.8549999999999990E-002    -3.2137166854881175E-002
  -8.7700000000000000E-002    -3.1759832775924576E-002
  -8.6849999999999997E-002    -2.2956463339561084E-002
  -8.5999999999999993E-002    -5.4958125034465059E-003
  -8.5150000000000003E-002     1.8621299113333569E-002
  -8.4300000000000000E-002     4.5171099214590595E-002
  -8.3449999999999996E-002     6.8323311367841630E-002
  -8.2600000000000007E-002     8.1805966579046013E-002
  -8.1749999999999989E-002     8.0394387543935145E-002
  -8.0900000000000000E-002     6.1377315578199074E-002
  -8.0049999999999996E-002     2.5610238115489709E-002
  -7.9199999999999993E-002    -2.2171151852008610E-002
  -7.8350000000000003E-002    -7.3943422207853382E-002
  -7.7499999999999999E-002   -0.11983843378543754
  -7.6649999999999996E-002   -0.15015153360280675
  -7.5800000000000006E-002   -0.15746151443618939
  -7.4949999999999989E-002   -0.13834929331990856
  -7.4099999999999999E-002    -9.4278922346226923E-002
  -7.3249999999999996E-002    -3.1402722633687818E-002
  -7.2399999999999992E-002     4.0674288136081205E-002
  -7.1550000000000002E-002    0.11086447705184246
  -7.0699999999999999E-002    0.16880075211721052
  -6.9849999999999995E-002    0.20671514799732393
  -6.9000000000000006E-002    0.22053758699867354
  -6.8149999999999988E-002    0.20999538081091365
  -6.7299999999999999E-002    0.17779946376776512
  -6.6449999999999995E-002    0.12827836143610841
  -6.5599999999999992E-002     6.5986120141112603E-002
  -6.4750000000000002E-002    -5.2025338143498329E-003
  -6.3899999999999998E-002    -8.2183685045463445E-002
  -6.3049999999999995E-002   -0.16189385507272971
  -6.2199999999999998E-002   -0.24008596989867564
  -6.1350000000000002E-002   -0.31019146594707725
  -6.0499999999999998E-002   -0.36290589368096066
  -5.9650000000000002E-002   -0.38696154293743407
  -5.8799999999999998E-002   -0.37118717836346188
  -5.7950000000000002E-002   -0.30748807261271599
  -5.7099999999999998E-002   -0.19397373068941276
  -5.6249999999999994E-002    -3.7262070669388969E-002
  -5.5400000000000005E-002    0.14692897684704972
  -5.4550000000000001E-002    0.33539031888766113
  -5.3699999999999998E-002    0.50112544164734196
  -5.2849999999999994E-002    0.61841090510679908
  -5.2000000000000005E-002    0.66800825847843426
  -5.1150000000000001E-002    0.64118243948057663
  -5.0299999999999997E-002    0.54143894800470271
  -4.9449999999999994E-002    0.38348983674046494
  -4.8600000000000004E-002    0.18972539231874425
  -4.7750000000000001E-002    -1.4822324559085664E-002
  -4.6899999999999997E-002   -0.20761769960122067
  -4.6049999999999994E-002   -0.37245849131661218
  -4.5200000000000004E-002   -0.50104912407745050
  -4.4350000000000001E-002   -0.59207826131574803
  -4.3499999999999997E-002   -0.64837623288037116
  -4.2649999999999993E-002   -0.67331528640751581
  -4.1800000000000004E-002   -0.66783498107685013
  -4.0950000000000000E-002   -0.62919807980657061
  -4.0099999999999997E-002   -0.55195284679214485
  -3.9249999999999993E-002   -0.43077456684545912
  -3.8400000000000004E-002   -0.26416435321721954
  -3.7550000000000000E-002    -5.7643049183449813E-002
  -3.6699999999999997E-002    0.17480129440205039
  -3.5850000000000007E-002    0.41171521267651778
  -3.5000000000000003E-002    0.62753374568098341
  -3.4150000000000000E-002    0.79743664555130944
  -3.3299999999999996E-002    0.90235304419024553
  -3.2450000000000007E-002    0.93271708081751148
  -3.1600000000000003E-002    0.88994779547907099
  -3.0750000000000000E-002    0.78533567414793204
  -2.9899999999999996E-002    0.63674918246016499
  -2.9050000000000006E-002    0.46419421280406481
  -2.8200000000000003E-002    0.28546580416148815
  -2.7349999999999999E-002    0.11300877352678695
  -2.6499999999999996E-002    -4.7371839676507266E-002
  -2.5650000000000006E-002   -0.19587684498860072
  -2.4800000000000003E-002   -0.33661385290946894
  -2.3949999999999999E-002   -0.47477061679625937
  -2.3099999999999996E-002   -0.61384622952718459
  -2.2250000000000006E-002   -0.75353715348314299
  -2.1400000000000002E-002   -0.88859624501011725
  -2.0549999999999999E-002    -1.0087584158767422
  -1.9699999999999995E-002    -1.0996508930193820
  -1.8850000000000006E-002    -1.1445781119927185
  -1.8000000000000002E-002    -1.1270474039360376
  -1.7149999999999999E-002    -1.0338483680385657
  -1.6299999999999995E-002   -0.85832905732914422
  -1.5450000000000005E-002   -0.60333353946265733
  -1.4600000000000002E-002   -0.28301024047306755
  -1.3749999999999998E-002     7.7252930741356113E-002
  -1.2899999999999995E-002    0.44326736090366187
  -1.2050000000000005E-002    0.77688047314075470
  -1.1200000000000002E-002     1.0424221804500611
  -1.0349999999999998E-002     1.2134315612439486
  -9.5000000000000084E-003     1.2779211314372640
  -8.6500000000000049E-003     1.2405991103665035
  -7.8000000000000014E-003     1.1213135184617342
  -6.9499999999999978E-003    0.94968222864573226
  -6.1000000000000082E-003    0.75748994239587886
  -5.2500000000000047E-003    0.57069370652021723
  -4.4000000000000011E-003    0.40360040051129775
  -3.5499999999999976E-003    0.25675349048926183
  -2.7000000000000079E-003    0.11942645413329611
  -1.8500000000000044E-003    -2.4817206234607148E-002
  -1.0000000000000009E-003   -0.19060911611767789
  -1.4999999999999736E-004   -0.38459174276848457
   6.9999999999999230E-004   -0.60258473619639030
   1.5499999999999958E-003   -0.83169985107727340
   2.3999999999999994E-003    -1.0564313322615191
   3.2500000000000029E-003    -1.2670007506620484
   4.0999999999999925E-003    -1.4678283877927849
   4.9499999999999961E-003    -1.6814810918437013
   5.7999999999999996E-003    -1.9479608222170188
   6.6499999999999893E-003    -2.3182255802216707
   7.5000000000000067E-003    -2.8429579116540191
   8.3499999999999963E-003    -3.5618187200164639
   9.1999999999999860E-003    -4.4932413511894076
   1.0050000000000003E-002    -5.6309766112633310
   1.0899999999999993E-002    -6.9473325410026368
   1.1750000000000010E-002    -8.4016747471704516
   1.2600000000000000E-002    -9.9552137937793788
   1.3449999999999990E-002    -11.584684057669172
   1.4300000000000007E-002    -13.293122516020622
   1.5149999999999997E-002    -15.118049425522960
   1.5999999999999986E-002    -17.131616993465400
   1.6850000000000004E-002    -19.435032092698854
   1.7699999999999994E-002    -22.151001308561945
   1.8549999999999983E-002    -25.415577543698344
   1.9400000000000001E-002    -29.371235730956066
   2.0249999999999990E-002    -34.162221867811922
   2.1100000000000008E-002    -39.935012364010205
   2.1949999999999997E-002    -46.842204835112689
   2.2799999999999987E-002    -55.044687977699304
   2.3650000000000004E-002    -64.713749329698814
   2.4499999999999994E-002    -76.039088304426542
   2.5349999999999984E-002    -89.226615227739345
   2.6200000000000001E-002    -104.50191138693168
   2.7049999999999991E-002    -122.11422493602306
   2.7900000000000008E-002    -142.33839802075207
   2.8749999999999998E-002    -165.48448089336853
   2.9599999999999987E-002    -191.90545379169870
   3.0450000000000005E-002    -222.00683426597294
   3.1299999999999994E-002    -256.25389271635908
   3.2149999999999984E-002    -295.18058129633368
   3.3000000000000002E-002    -339.39222189342951
   3.3849999999999991E-002    -389.56041940006014
   3.4700000000000009E-002    -446.42870814852211
   3.5549999999999998E-002    -510.78913112974851
   3.6399999999999988E-002    -583.49765541289810
   3.7250000000000005E-002    -665.46188564420288
   3.8099999999999995E-002    -757.62468981829284
   3.8949999999999985E-002    -861.00450658976627
   3.9800000000000002E-002    -976.64821476842815
   4.0649999999999992E-002    -1105.6978897636336
   4.1500000000000009E-002    -1249.3582403254063
   4.2349999999999999E-002    -1408.9041782753904
   4.3199999999999988E-002    -1585.6898982715477
   4.4050000000000006E-002    -1781.1409419603854
   4.4899999999999995E-002    -1996.7168920569852
   4.5749999999999985E-002    -2233.9315769086652
   4.6600000000000003E-002    -2494.3160118346896
   4.7449999999999992E-002    -2779.4046074676471
   4.8299999999999982E-002    -3090.7413039273342
   4.9149999999999999E-002    -3429.8537799717678
   4.9999999999999989E-002    -3798.2572259698431
   5.0850000000000006E-002    -4197.4406414476198
   5.1699999999999996E-002    -4628.8307097944344
   5.2549999999999986E-002    -5093.8181055927080
   5.3400000000000003E-002    -5593.6382329541257
   5.4249999999999993E-002    -6129.3422345746540
   5.5099999999999982E-002    -6701.8006982799707
   5.5950000000000000E-002    -7311.5651699953887
   5.6799999999999989E-002    -7958.8549875355820
   5.7650000000000007E-002    -8643.5392560072942
   5.8499999999999996E-002    -9365.0852796981435
   5.9349999999999986E-002    -10122.475090901025
   6.0200000000000004E-002    -10914.273726005247
   6.1049999999999993E-002    -11738.547804978540
   6.1899999999999983E-002    -12592.766017128830
   6.2750000000000000E-002    -13473.794907516763
   6.3599999999999990E-002    -14377.803327703110
   6.4450000000000007E-002    -15300.136745696724
   6.5299999999999997E-002    -16235.243993970042
   6.6149999999999987E-002    -17176.845867047618
   6.7000000000000004E-002    -18117.653336571049
   6.7849999999999994E-002    -19049.458133220498
   6.8699999999999983E-002    -19963.077978044406
   6.9550000000000001E-002    -20848.535993132962
   7.0399999999999990E-002    -21694.930527135788
   7.1249999999999980E-002    -22490.541552439230
   7.2099999999999997E-002    -23222.703032557227
   7.2949999999999987E-002    -23877.923630555219
   7.3800000000000004E-002    -24441.802959694644
   7.4649999999999994E-002    -24899.324945213368
   7.5499999999999984E-002    -25234.775796863014
   7.6350000000000001E-002    -25432.077085789355
   7.7199999999999991E-002    -25474.712830551260
   7.8049999999999981E-002    -25345.862979262667
   7.8899999999999998E-002    -25029.064445011267
   7.9749999999999988E-002    -24507.887079540149
   8.0600000000000005E-002    -23766.399039133816
   8.1449999999999995E-002    -22789.255082628071
   8.2299999999999984E-002    -21562.014798428172
   8.3150000000000002E-002    -20071.036373133797
   8.3999999999999991E-002    -18304.226358490952
   8.4849999999999981E-002    -16251.340974897739
   8.5699999999999998E-002    -13903.420665472844
   8.6549999999999988E-002    -11254.305786734694
   8.7400000000000005E-002    -8299.9085145765002
   8.8249999999999995E-002    -5039.1640084529281
   8.9099999999999985E-002    -1473.9762896071725
   8.9950000000000002E-002     2390.9173585938011
   9.0799999999999992E-002     6547.0228969390846
   9.1649999999999981E-002     10982.753483012079
   9.2499999999999999E-002     15682.501993115733
   9.3349999999999989E-002     20627.110729416381
   9.4200000000000006E-002     25793.529055577437
   9.5049999999999996E-002     31155.325592135749
   9.5899999999999985E-002     36681.663130609348
   9.6750000000000003E-002     42338.381572115220
   9.7599999999999992E-002     48087.377886596281
   9.8449999999999982E-002     53887.613724748451
   9.9299999999999999E-002     59694.518512912713
  0.10014999999999999          65460.956957750168
  0.10099999999999998          71137.422908188513
  0.10185000000000000          76672.404056652536
  0.10269999999999999          82012.764788463610
  0.10355000000000000          87104.339412424539
  0.10439999999999999          91892.279965871741
  0.10524999999999998          96322.176513630009
  0.10610000000000000          100339.65696208979
  0.10694999999999999          103892.00101748208
  0.10779999999999998          106928.24115981780
  0.10865000000000000          109400.08337348266
  0.10949999999999999          111262.55440268511
  0.11035000000000000          112474.34001337062
  0.11119999999999999          112998.54983699930
  0.11204999999999998          112803.75609609208
  0.11290000000000000          111863.47807926589
  0.11374999999999999          110157.95884111148
  0.11459999999999998          107673.26425555750
  0.11545000000000000          104402.87511023501
  0.11629999999999999          100347.06735492713
  0.11715000000000000          95513.469106604156
  0.11799999999999999          89917.095981890277
  0.11884999999999998          83580.419270756160
  0.11970000000000000          76533.451331762466
  0.12054999999999999          68813.807358850783
  0.12139999999999998          60465.946240395482
  0.12225000000000000          51541.008753381408
  0.12309999999999999          42097.306176345737
  0.12395000000000000          32198.153487219686
  0.12479999999999999          21912.736135311883
  0.12564999999999998          11314.831505969098
  0.12650000000000000          482.19278450717320
  0.12734999999999999         -10504.722136469252
  0.12819999999999998         -21562.360867356187
  0.12905000000000000         -32606.084364417537
  0.12989999999999999         -43550.533360146859
  0.13074999999999998         -54310.401132506609
  0.13159999999999999         -64801.410578339142
  0.13245000000000001         -74941.526481739536
  0.13329999999999997         -84650.980746010144
  0.13414999999999999         -93853.972158896038
  0.13500000000000001         -102479.29653687964
  0.13584999999999997         -110461.03270551635
  0.13669999999999999         -117738.73909156531
  0.13755000000000001         -124258.73117195853
  0.13839999999999997         -129974.54793574894
  0.13924999999999998         -134846.82492338415
  0.14010000000000000         -138843.75423966325
  0.14094999999999996         -141942.17947154492
  0.14179999999999998         -144126.53493683535
  0.14265000000000000         -145389.68977386446
  0.14350000000000002         -145732.90957705726
  0.14434999999999998         -145165.93618163059
  0.14520000000000000         -143706.07738247237
  0.14605000000000001         -141378.12996444508
  0.14689999999999998         -138214.99831867623
  0.14774999999999999         -134255.15755696676
  0.14860000000000001         -129544.70850401206
  0.14944999999999997         -124134.02413296449
  0.15029999999999999         -118079.16448065193
  0.15115000000000001         -111440.53931583345
  0.15199999999999997         -104282.21549113982
  0.15284999999999999         -96671.112348161187
  0.15370000000000000         -88676.122475281634
  0.15454999999999997         -80367.617684067387
  0.15539999999999998         -71817.266475537181
  0.15625000000000000         -63096.086693490768
  0.15709999999999996         -54274.456374250323
  0.15794999999999998         -45420.665476274371
  0.15880000000000000         -36602.859763312910
  0.15965000000000001         -27884.274412481362
  0.16049999999999998         -19326.291054922982
  0.16134999999999999         -10985.501457508441
  0.16220000000000001         -2915.2676668574386
  0.16304999999999997          4835.9735709942652
  0.16389999999999999          12224.273619863314
  0.16475000000000001          19211.113397763002
  0.16559999999999997          25762.511520049971
  0.16644999999999999          31850.157721091404
  0.16730000000000000          37450.803411774803
  0.16814999999999997          42546.868191093366
  0.16899999999999998          47125.676669156543
  0.16985000000000000          51179.844121910028
  0.17069999999999996          54706.826269148907
  0.17154999999999998          57709.077333114357
  0.17240000000000000          60193.321712419282
  0.17325000000000002          62170.340918986862
  0.17409999999999998          63654.549325880740
  0.17494999999999999          64663.626969594567
  0.17580000000000001          65218.720952981297
  0.17664999999999997          65343.102084818063
  0.17749999999999999          65062.589772936131
  0.17835000000000001          64404.662190891700
  0.17919999999999997          63398.558548852947
  0.18004999999999999          62074.536035726735
  0.18090000000000001          60463.739801212912
  0.18174999999999997          58597.810475066421
  0.18259999999999998          56508.123103152524
  0.18345000000000000          54226.053540431923
  0.18429999999999996          51782.292332921323
  0.18514999999999998          49206.598797997081
  0.18600000000000000          46527.763447823134
  0.18684999999999996          43773.259866113985
  0.18769999999999998          40969.152451665941
  0.18855000000000000          38140.152047083378
  0.18940000000000001          35309.068081152785
  0.19024999999999997          32497.000543631875
  0.19109999999999999          29723.411673671995
  0.19195000000000001          27005.662409912642
  0.19279999999999997          24359.176112205816
  0.19364999999999999          21797.491750073590
  0.19450000000000001          19332.099041225738
  0.19534999999999997          16972.597703742751
  0.19619999999999999          14726.834090233748
  0.19705000000000000          12600.974948440897
  0.19789999999999996          10599.626931183320
  0.19874999999999998          8725.8722081150318
  0.19960000000000000          6981.5427370370035
  0.20044999999999996          5367.2044526068366
  0.20129999999999998          3882.1189192776728
  0.20215000000000000          2524.5193074515532
  0.20300000000000001          1291.6703000747102
  0.20384999999999998          180.09108757275135
  0.20469999999999999         -814.50854163408621
  0.20555000000000001         -1696.8546110163588
  0.20639999999999997         -2472.3080576108928
  0.20724999999999999         -3146.5127704291003
  0.20810000000000001         -3725.4954265808083
  0.20894999999999997         -4215.3617465626648
  0.20979999999999999         -4622.3588687811216
  0.21065000000000000         -4952.9186458916247
  0.21149999999999997         -5213.2777761276921
  0.21234999999999998         -5409.5148173811631
  0.21320000000000000         -5547.6452633392437
  0.21404999999999996         -5633.3642640748003
  0.21489999999999998         -5672.2148930289395
  0.21575000000000000         -5669.4141668610118
  0.21659999999999996         -5629.9170466195055
  0.21744999999999998         -5558.5147166158440
  0.21829999999999999         -5459.5947466217604
  0.21915000000000001         -5337.3954664617922
  0.21999999999999997         -5195.8106259008418
  0.22084999999999999         -5038.4452042748726
  0.22170000000000001         -4868.6594529919985
  0.22254999999999997         -4689.2394925028930
  0.22339999999999999         -4502.8043266769300
  0.22425000000000000         -4311.6392796068894
  0.22509999999999997         -4117.7365630782006
  0.22594999999999998         -3923.0669530603627
  0.22680000000000000         -3729.2198685897692
  0.22764999999999996         -3537.7470734564986
  0.22849999999999998         -3350.0375253697935
  0.22935000000000000         -3167.2612811507388
  0.23019999999999996         -2990.4314882973545
  0.23104999999999998         -2820.2271459835283
  0.23190000000000000         -2657.1642198160303
  0.23275000000000001         -2501.5497651968144
  0.23359999999999997         -2353.6049188249535
  0.23444999999999999         -2213.4054334358111
  0.23530000000000001         -2081.0468045339467
  0.23614999999999997         -1956.5592977035039
  0.23699999999999999         -1839.9855014694717
  0.23785000000000001         -1731.3319049931570
  0.23869999999999997         -1630.5368609680645
  0.23954999999999999         -1537.4284715860522
  0.24040000000000000         -1451.7488367709566
  0.24124999999999996         -1373.1035813191374
  0.24209999999999998         -1301.0797554666610
  0.24295000000000000         -1235.2301849487287
  0.24379999999999996         -1175.1058542310259
  0.24464999999999998         -1120.2864503320079
  0.24550000000000000         -1070.4126143207368
  0.24634999999999996         -1025.1167800681139
  0.24719999999999998         -984.08450247437327
  0.24804999999999999         -946.92920488667141
  0.24890000000000001         -913.32685397146042
  0.24974999999999997         -882.84105340728593
  0.25059999999999999         -855.08880796424955
  0.25145000000000001         -829.72255903397581
  0.25229999999999997         -806.44252797327010
  0.25314999999999999         -785.01944520407062
  0.25400000000000000         -765.29890807872914
  0.25484999999999997         -747.13316946137707
  0.25569999999999998         -730.42153444016446
  0.25655000000000000         -715.00623624870479
  0.25739999999999996         -700.70476043507915
  0.25824999999999998         -687.28035823107416
  0.25910000000000000         -674.48206445752010
  0.25994999999999996         -662.07113331464348
  0.26079999999999998         -649.82149772953642
  0.26164999999999999         -637.58896199141623
  0.26249999999999996         -625.26255142595744
  0.26334999999999997         -612.81343462681764
  0.26419999999999999         -600.22027976213280
  0.26505000000000001         -587.47176399640227
  0.26589999999999997         -574.50545417293370
  0.26674999999999999         -561.18810042167729
  0.26760000000000000         -547.32270266476723
  0.26844999999999997         -532.67852625513365
  0.26929999999999998         -516.99265181289184
  0.27015000000000000         -500.02950986032420
  0.27099999999999996         -481.58996432286756
  0.27184999999999998         -461.59902168294286
  0.27270000000000000         -440.07038209599239
  0.27354999999999996         -417.09058495964501
  0.27439999999999998         -392.84067228629897
  0.27524999999999999         -367.52004913194270
  0.27609999999999996         -341.32004423048045
  0.27694999999999997         -314.37810574046438
  0.27779999999999999         -286.78271627829815
  0.27865000000000001         -258.58336464447666
  0.27949999999999997         -229.79693773963902
  0.28034999999999999         -200.49065587245937
  0.28120000000000001         -170.80812757937557
  0.28204999999999997         -140.99630027150670
  0.28289999999999998         -111.43702964326002
  0.28375000000000000         -82.625347932629822
  0.28459999999999996         -55.129109155634012
  0.28544999999999998         -29.481263399982524
  0.28630000000000000         -6.1517658982112593
  0.28714999999999996          14.526122214892609
  0.28799999999999998          32.377422200637852
  0.28885000000000000          47.385120943440938
  0.28969999999999996          59.610175276435960
  0.29054999999999997          69.144531219434128
  0.29139999999999999          76.037285487344747
  0.29224999999999995          80.262470064003537
  0.29309999999999997          81.690178449551766
  0.29394999999999999          80.132069586483411
  0.29480000000000001          75.385913983163064
  0.29564999999999997          67.344340071082982
  0.29649999999999999          56.032228501712297
  0.29735000000000000          41.664084242136063
  0.29819999999999997          24.632351889808362
  0.29904999999999998          5.4628551632623115
  0.29990000000000000         -15.240185302162907
  0.30074999999999996         -36.893090897004342
  0.30159999999999998         -58.998693536540600
  0.30245000000000000         -81.183229575235131
  0.30329999999999996         -103.18953882439560
  0.30414999999999998         -124.87162739113754
  0.30499999999999999         -146.11166602189149
  0.30584999999999996         -166.78075679323109
  0.30669999999999997         -186.69719748966855
  0.30754999999999999         -205.61536972478871
  0.30840000000000001         -223.21794960690937
  0.30924999999999997         -239.17693305977497
  0.31009999999999999         -253.17276487970469
  0.31095000000000000         -264.95280459676434
  0.31179999999999997         -274.36196464448562
  0.31264999999999998         -281.33835876748299
  0.31350000000000000         -285.92467344612038
  0.31434999999999996         -288.24094327840282
  0.31519999999999998         -288.44978811398050
  0.31605000000000000         -286.74020570238207
  0.31689999999999996         -283.28938476383337
  0.31774999999999998         -278.25231196438710
  0.31859999999999999         -271.73603359410566
  0.31944999999999996         -263.81370924287552
  0.32029999999999997         -254.50936037646920
  0.32114999999999999         -243.83806984779568
  0.32199999999999995         -231.79037782647208
  0.32284999999999997         -218.39131594690889
  0.32369999999999999         -203.68695877610872
  0.32455000000000001         -187.78405936004958
  0.32539999999999997         -170.83587644074595
  0.32624999999999998         -153.03529287731229
  0.32710000000000000         -134.59510163911958
  0.32794999999999996         -115.69717869654804
  0.32879999999999998         -96.489214263146820
  0.32965000000000000         -77.047602293886015
  0.33049999999999996         -57.386495394341736
  0.33134999999999998         -37.468767569279947
  0.33220000000000000         -17.257452654699939
  0.33304999999999996          3.2610349422123797
  0.33389999999999997          24.021278822724828
  0.33474999999999999          44.868973462410992
  0.33559999999999995          65.547032008953579
  0.33644999999999997          85.726536178603496
  0.33729999999999999          105.04940830330128
  0.33815000000000001          123.16977926839542
  0.33899999999999997          139.79156995023425
  0.33984999999999999          154.69461936309307
  0.34070000000000000          167.74857698741613
  0.34154999999999996          178.86827666480357
  0.34239999999999998          188.01315704845106
  0.34325000000000000          195.12265154475534
  0.34409999999999996          200.10747170154954
  0.34494999999999998          202.82117697479518
  0.34580000000000000          203.06379483019055
  0.34664999999999996          200.61048168379355
  0.34749999999999998          195.23939892767930
  0.34834999999999999          186.78014795245267
  0.34919999999999995          175.16017038501616
  0.35004999999999997          160.42239170966636
  0.35089999999999999          142.75721512234909
  0.35174999999999995          122.48086210163223
  0.35259999999999997          100.01537456826117
  0.35344999999999999          75.843283452030789
  0.35430000000000000          50.450065114378681
  0.35514999999999997          24.276783661545480
  0.35599999999999998         -2.3134071525765449
  0.35685000000000000         -29.051628172591073
  0.35769999999999996         -55.748810718302664
  0.35854999999999998         -82.250846824622940
  0.35940000000000000         -108.38576637426864
  0.36024999999999996         -133.90709092594193
  0.36109999999999998         -158.46412199211591
  0.36194999999999999         -181.58794223938838
  0.36279999999999996         -202.73001516966684
  0.36364999999999997         -221.32890444604033
  0.36449999999999999         -236.88576899726385
  0.36534999999999995         -249.05195494685941
  0.36619999999999997         -257.66667232476181
  0.36704999999999999         -262.77847871338042
  0.36790000000000000         -264.60212857943338
  0.36874999999999997         -263.45293345750542
  0.36959999999999998         -259.65835553845875
  0.37045000000000000         -253.49367443442287
  0.37129999999999996         -245.12621880845268
  0.37214999999999998         -234.63165580788271
  0.37300000000000000         -222.02426280615475
  0.37384999999999996         -207.33104995247055
  0.37469999999999998         -190.65859169970182
  0.37554999999999999         -172.23537355052915
  0.37639999999999996         -152.42475916013359
  0.37724999999999997         -131.69029613300017
  0.37809999999999999         -110.52876938407627
  0.37894999999999995         -89.401082867285311
  0.37979999999999997         -68.663089743956718
  0.38064999999999993         -48.537565882467845
  0.38149999999999995         -29.125412127644360
  0.38234999999999997         -10.439695537377752
  0.38319999999999999          7.5288833845479717
  0.38405000000000000          24.767212185914588