 -0.12000000000000000          0.0000000000000000
 -0.11914999999999999          0.0000000000000000
 -0.11830000000000000          0.0000000000000000
 -0.11745000000000000          0.0000000000000000
 -0.11660000000000000          0.0000000000000000
 -0.11574999999999999          0.0000000000000000
 -0.11490000000000000          0.0000000000000000
 -0.11405000000000000          0.0000000000000000
 -0.11320000000000000          0.0000000000000000
 -0.11234999999999999          0.0000000000000000
 -0.11150000000000000          0.0000000000000000
 -0.11065000000000000         -7.4744418716217153E-035
 -0.10979999999999999         -1.1655956219439368E-033
 -0.10894999999999999         -8.8178415843585719E-033
 -0.10810000000000000         -4.1736498854887744E-032
 -0.10725000000000000         -1.2911265058611308E-031
 -0.10639999999999999         -2.1385602029229751E-031
 -0.10554999999999999          2.3878035762046596E-031
 -0.10470000000000000          3.1251935820466100E-030
 -0.10385000000000000          1.2626966228937768E-029
 -0.10299999999999999          3.3654231543661403E-029
 -0.10214999999999999          6.1853644270926709E-029
 -0.10130000000000000          5.7584241217323130E-029
 -0.10045000000000000         -9.5067336435821783E-029
  -9.9599999999999994E-002    -6.1225617720113187E-028
  -9.8750000000000004E-002    -1.7287532268145159E-027
  -9.7900000000000001E-002    -3.3683689239403797E-027
  -9.7049999999999997E-002    -4.4570207114255373E-027
  -9.6199999999999994E-002    -2.0197639231437638E-027
  -9.5349999999999990E-002     9.2323702549209668E-027
  -9.4500000000000001E-002     3.5353782920657781E-026
  -9.3649999999999997E-002     7.7740174123896672E-026
  -9.2799999999999994E-002     1.2279424407633597E-025
  -9.1950000000000004E-002     1.2897191512798440E-025
  -9.1100000000000000E-002     1.9595246509185751E-026
  -9.0249999999999997E-002    -3.0314131364393749E-025
  -8.9399999999999993E-002    -9.0457311108682224E-025
  -8.8549999999999990E-002    -1.7147696881232067E-024
  -8.7700000000000000E-002    -2.3945090366842478E-024
  -8.6849999999999997E-002    -2.2343878096160736E-024
  -8.5999999999999993E-002    -2.0230518867441325E-025
  -8.5150000000000003E-002     4.7225743043832976E-024
  -8.4300000000000000E-002     1.2841039499568029E-023
  -8.3449999999999996E-002     2.2721349408247642E-023
  -8.2600000000000007E-002     3.0220899732542247E-023
  -8.1749999999999989E-002     2.8179827704741440E-023
  -8.0900000000000000E-002     7.6009690789011330E-024
  -8.0049999999999996E-002    -3.9024313390249322E-023
  -7.9199999999999993E-002    -1.1224306670758264E-022
  -7.8350000000000003E-002    -1.9919163243358602E-022
  -7.7499999999999999E-002    -2.6875973022862735E-022
  -7.6649999999999996E-002    -2.7203658262187245E-022
  -7.5800000000000006E-002    -1.5166790839064926E-022
  -7.4949999999999989E-002     1.3809883029033949E-022
  -7.4099999999999999E-002     6.0275505407269709E-022
  -7.3249999999999996E-002     1.1775006473742347E-021
  -7.2399999999999992E-002     1.7079015472843156E-021
  -7.1550000000000002E-002     1.9554026124941835E-021
  -7.0699999999999999E-002     1.6390170085892300E-021
  -6.9849999999999995E-002     5.1564059341200586E-022
  -6.9000000000000006E-002    -1.5123507148364065E-021
  -6.8149999999999988E-002    -4.2886537489587997E-021
  -6.7299999999999999E-002    -7.3310310176898429E-021
  -6.6449999999999995E-002    -9.8339972983611193E-021
  -6.5599999999999992E-002    -1.0772048817188386E-020
  -6.4750000000000002E-002    -9.1044729929470487E-021
  -6.3899999999999998E-002    -4.0515465025015011E-021
  -6.3049999999999995E-002     4.6155375301569806E-021
  -6.2199999999999998E-002     1.6341706586194263E-020
  -6.1350000000000002E-002     2.9674552598888690E-020
  -6.0499999999999998E-002     4.2304631736410576E-020
  -5.9650000000000002E-002     5.1255524921988075E-020
  -5.8799999999999998E-002     5.3188694216121879E-020
  -5.7950000000000002E-002     4.4780686439184104E-020
  -5.7099999999999998E-002     2.3154699273617866E-020
  -5.6249999999999994E-002    -1.3603205813613436E-020
  -5.5400000000000005E-002    -6.5767828754176351E-020
  -5.4550000000000001E-002    -1.3106086954544850E-019
  -5.3699999999999998E-002    -2.0349908303314369E-019
  -5.2849999999999994E-002    -2.7217881172704412E-019
  -5.2000000000000005E-002    -3.2041842074167668E-019
  -5.1150000000000001E-002    -3.2592950574178215E-019
  -5.0299999999999997E-002    -2.6282013257204915E-019
  -4.9449999999999994E-002    -1.0612270312997696E-019
  -4.8600000000000004E-002     1.6091970053104268E-019
  -4.7750000000000001E-002     5.3739499398884298E-019
  -4.6899999999999997E-002     9.9475330304102972E-019
  -4.6049999999999994E-002     1.4690638341403669E-018
  -4.5200000000000004E-002     1.8589348999769027E-018
  -4.4350000000000001E-002     2.0324672405194577E-018
  -4.3499999999999997E-002     1.8454602426844854E-018
  -4.2649999999999993E-002     1.1708029810713674E-018
  -4.1800000000000004E-002    -6.4186133544689604E-020
  -4.0950000000000000E-002    -1.8390403474153339E-018
  -4.0099999999999997E-002    -4.0091977625041666E-018
  -3.9249999999999993E-002    -6.2927618363391489E-018
  -3.8400000000000004E-002    -8.2831693346457881E-018
  -3.7550000000000000E-002    -9.4915422614976821E-018
  -3.6699999999999997E-002    -9.4161505482325469E-018
  -3.5850000000000007E-002    -7.6296512966460678E-018
  -3.5000000000000003E-002    -3.8696132291478454E-018
  -3.4150000000000000E-002     1.8838668452166970E-018
  -3.3299999999999996E-002     9.3568004399014654E-018
  -3.2450000000000007E-002     1.7962760062787244E-017
  -3.1600000000000003E-002     2.6815271361382881E-017
  -3.0750000000000000E-002     3.4762485327224236E-017
  -2.9899999999999996E-002     4.0434283979208297E-017
  -2.9050000000000006E-002     4.2298337791113459E-017
  -2.8200000000000003E-002     3.8735056173426965E-017
  -2.7349999999999999E-002     2.8157732907889196E-017
  -2.6499999999999996E-002     9.2156437188842524E-018
  -2.5650000000000006E-002    -1.8883838308236769E-017
  -2.4800000000000003E-002    -5.5920578127363660E-017
  -2.3949999999999999E-002    -1.0010582064080651E-016
  -2.3099999999999996E-002    -1.4751808835176448E-016
  -2.2250000000000006E-002    -1.9168837799300761E-016
  -2.1400000000000002E-002    -2.2353946001491788E-016
  -2.0549999999999999E-002    -2.3189304524515578E-016
  -1.9699999999999995E-002    -2.0470980882952925E-016
  -1.8850000000000006E-002    -1.3111643656847328E-016
  -1.8000000000000002E-002    -4.1056934116470923E-018
  -1.7149999999999999E-002     1.7640316843593760E-016
  -1.6299999999999995E-002     4.0065337293189375E-016
  -1.5450000000000005E-002     6.4694686987824618E-016
  -1.4600000000000002E-002     8.8106539114376408E-016
  -1.3749999999999998E-002     1.0578680178821165E-015
  -1.2899999999999995E-002     1.1255058187604500E-015
  -1.2050000000000005E-002     1.0323381142743662E-015
  -1.1200000000000002E-002     7.3615821317477864E-016
  -1.0349999999999998E-002     2.1478730427378059E-016
  -9.5000000000000084E-003    -5.2344700525087739E-016
  -8.6500000000000049E-003    -1.4312651902333927E-015
  -7.8000000000000014E-003    -2.4181483520322047E-015
  -6.9499999999999978E-003    -3.3522021297610611E-015
  -6.1000000000000082E-003    -4.0696215709096045E-015
  -5.2500000000000047E-003    -4.3922201827392992E-015
  -4.4000000000000011E-003    -4.1521455076885376E-015
  -3.5499999999999976E-003    -3.2213774022234115E-015
  -2.7000000000000079E-003    -1.5421814304035766E-015
  -1.8500000000000044E-003     8.4632335837640622E-016
  -1.0000000000000009E-003     3.7906250519190871E-015
  -1.4999999999999736E-004     7.0188624821892399E-015
   6.9999999999999230E-004     1.0153503793783459E-014
   1.5499999999999958E-003     1.2741503098643655E-014
   2.3999999999999994E-003     1.4300238786106743E-014
   3.2500000000000029E-003     1.4375134101563816E-014
   4.0999999999999925E-003     1.2603009335908752E-014
   4.9499999999999961E-003     8.7742243936071612E-015
   5.7999999999999996E-003     2.8865713154485219E-015
   6.6499999999999893E-003    -4.8154181225966414E-015
   7.5000000000000067E-003    -1.3821103740014198E-014
   8.3499999999999963E-003    -2.3358465748775380E-014
   9.1999999999999860E-003    -3.2426081662574604E-014
   1.0050000000000003E-002    -3.9854322649656516E-014
   1.0899999999999993E-002    -4.4396393681841206E-014
   1.1750000000000010E-002    -4.4847644641172153E-014
   1.2600000000000000E-002    -4.0188334725354643E-014
   1.3449999999999990E-002    -2.9740573400359896E-014
   1.4300000000000007E-002    -1.3325221959179451E-014
   1.5149999999999997E-002     8.6000710267138366E-015
   1.5999999999999986E-002     3.4843640657780938E-014
   1.6850000000000004E-002     6.3445740083362258E-014
   1.7699999999999994E-002     9.1726815009038102E-014
   1.8549999999999983E-002     1.1643065046396372E-013
   1.9400000000000001E-002     1.3396526057153589E-013
   2.0249999999999990E-002     1.4073300907865532E-013
   2.1100000000000008E-002     1.3352957384979490E-013
   2.1949999999999997E-002     1.0998076293994640E-013
   2.2799999999999987E-002     6.8977281291552758E-014
   2.3650000000000004E-002     1.1061350072388809E-014
   2.4499999999999994E-002    -6.1283827364451180E-014
   2.5349999999999984E-002    -1.4349107132691014E-013
   2.6200000000000001E-002    -2.2895676301495842E-013
   2.7049999999999991E-002    -3.0931376856415662E-013
   2.7900000000000008E-002    -3.7494827497669939E-013
   2.8749999999999998E-002    -4.1575666292753427E-013
   2.9599999999999987E-002    -4.2211059856844510E-013
   3.0450000000000005E-002    -3.8596784322501182E-013
   3.1299999999999994E-002    -3.0203622615699019E-013
   3.2149999999999984E-002    -1.6887518571990311E-013
   3.3000000000000002E-002     1.0194213902509831E-014
   3.3849999999999991E-002     2.2649946450595397E-013
   3.4700000000000009E-002     4.6586154777492725E-013
   3.5549999999999998E-002     7.0896098820320874E-013
   3.6399999999999988E-002     9.3227526404045287E-013
   3.7250000000000005E-002     1.1095932472190660E-012
   3.8099999999999995E-002     1.2140651863775102E-012
   3.8949999999999985E-002     1.2206950118285682E-012
   3.9800000000000002E-002     1.1091276131247453E-012
   4.0649999999999992E-002     8.6652857650640104E-013
   4.1500000000000009E-002     4.9029966367341724E-013
   4.2349999999999999E-002    -9.6696714451485549E-015
   4.3199999999999988E-002    -6.0953850775187887E-013
   4.4050000000000006E-002    -1.2711537999571426E-012
   4.4899999999999995E-002    -1.9430527382154194E-012
   4.5749999999999985E-002    -2.5629894907991992E-012
   4.6600000000000003E-002    -3.0620021124938257E-012
   4.7449999999999992E-002    -3.3698668355873620E-012
   4.8299999999999982E-002    -3.4216077394452015E-012
   4.9149999999999999E-002    -3.1645800611311347E-012
   4.9999999999999989E-002    -2.5655238128521668E-012
   5.0850000000000006E-002    -1.6169333924108101E-012
   5.1699999999999996E-002    -3.4208142027457920E-013
   5.2549999999999986E-002     1.2019162013383104E-012
   5.3400000000000003E-002     2.9235245757253052E-012
   5.4249999999999993E-002     4.6991189817250415E-012
   5.5099999999999982E-002     6.3784936095940990E-012
   5.5950000000000000E-002     7.7936399960164410E-012
   5.6799999999999989E-002     8.7706449632462974E-012
   5.7650000000000007E-002     9.1442728434815258E-012
   5.8499999999999996E-002     8.7744219706515455E-012
   5.9349999999999986E-002     7.5632813717290282E-012
   6.0200000000000004E-002     5.4716586955473039E-012
   6.1049999999999993E-002     2.5326891501668624E-012
   6.1899999999999983E-002    -1.1389262983444418E-012
   6.2750000000000000E-002    -5.3438709849339905E-012
   6.3599999999999990E-002    -9.8026751561403160E-012
   6.4450000000000007E-002    -1.4168381102887853E-011
   6.5299999999999997E-002    -1.8047348225648508E-011
   6.6149999999999987E-002    -2.1027286095324146E-011
   6.7000000000000004E-002    -2.2710821108661202E-011
   6.7849999999999994E-002    -2.2752240013928538E-011
   6.8699999999999983E-002    -2.0894540033248271E-011
   6.9550000000000001E-002    -1.7003685999668751E-011
   7.0399999999999990E-002    -1.1096889116952688E-011
   7.1249999999999980E-002    -3.3619101344952533E-012
   7.2099999999999997E-002     5.8352638107427042E-012
   7.2949999999999987E-002     1.5956442380905806E-011
   7.3800000000000004E-002     2.6312212249373915E-011
   7.4649999999999994E-002     3.6098117485041937E-011
   7.5499999999999984E-002     4.4445052861196359E-011
   7.6350000000000001E-002     5.0481511767713826E-011
   7.7199999999999991E-002     5.3404022644380870E-011
   7.8049999999999981E-002     5.2550826507370875E-011
   7.8899999999999998E-002     4.7473027205298377E-011
   7.9749999999999988E-002     3.7997009989140434E-011
   8.0600000000000005E-002     2.4271972638893676E-011
   8.1449999999999995E-002     6.7971455409885008E-012
   8.2299999999999984E-002    -1.3575588795351374E-011
   8.3150000000000002E-002    -3.5666315859204461E-011
   8.3999999999999991E-002    -5.8019736206606013E-011
   8.4849999999999981E-002    -7.8984626390550279E-011
   8.5699999999999998E-002    -9.6816773559716647E-011
   8.6549999999999988E-002    -1.0979995591608175E-010
   8.7400000000000005E-002    -1.1637783538621656E-010
   8.8249999999999995E-002    -1.1528797382446804E-010
   8.9099999999999985E-002    -1.0568813719101348E-010
   8.9950000000000002E-002    -8.7264648463064908E-011
   9.0799999999999992E-002    -6.0312681921570231E-011
   9.1649999999999981E-002    -2.5779671517833757E-011
   9.2499999999999999E-002     1.4735030705846916E-011
   9.3349999999999989E-002     5.9028412309912667E-011
   9.4200000000000006E-002     1.0439089661882036E-010
   9.5049999999999996E-002     1.4774960925665880E-010
   9.5899999999999985E-002     1.8585165536298155E-010
   9.6750000000000003E-002     2.1547787666472224E-010
   9.7599999999999992E-002     2.3367455228558578E-010
   9.8449999999999982E-002     2.3798834443792637E-010
   9.9299999999999999E-002     2.2668808992150252E-010
  0.10014999999999999          1.9895628603392489E-010
  0.10099999999999998          1.5503339801400421E-010
  0.10185000000000000          9.6299779422444216E-011
  0.10269999999999999          2.5283137801692248E-011
  0.10355000000000000         -5.4415974696831288E-011
  0.10439999999999999         -1.3828255896208651E-010
  0.10524999999999998         -2.2112448938488914E-010
  0.10610000000000000         -2.9737692673387129E-010
  0.10694999999999999         -3.6145560288039039E-010
  0.10779999999999998         -4.0813575166851096E-010
  0.10865000000000000         -4.3293030213332306E-010
  0.10949999999999999         -4.3243987135620640E-010
  0.11035000000000000         -4.0464861405946615E-010
  0.11119999999999999         -3.4914296708635648E-010
  0.11204999999999998         -2.6723511937096453E-010
  0.11290000000000000         -1.6197946316024169E-010
  0.11374999999999999         -3.8075817474168331E-011
  0.11459999999999998          9.8339235903246679E-011
  0.11545000000000000          2.4000380520648216E-010
  0.11629999999999999          3.7893014624056689E-010
  0.11715000000000000          5.0686898760066831E-010
  0.11799999999999999          6.1581090922159191E-010
  0.11884999999999998          6.9849148751998292E-010
  0.11970000000000000          7.4886571675319303E-010
  0.12054999999999999          7.6251663396657986E-010
  0.12139999999999998          7.3696851447837524E-010
  0.12225000000000000          6.7188147487074674E-010
  0.12309999999999999          5.6911316282311545E-010
  0.12395000000000000          4.3264607771306043E-010
  0.12479999999999999          2.6838799947594104E-010
  0.12564999999999998          8.3863063718180929E-011
  0.12650000000000000         -1.1218062691795925E-010
  0.12734999999999999         -3.1021600010907783E-010
  0.12819999999999998         -5.0040183640942793E-010
  0.12905000000000000         -6.7303989476148933E-010
  0.12989999999999999         -8.1899261316088193E-010
  0.13074999999999998         -9.3003132740329443E-010
  0.13159999999999999         -9.9910003235957646E-010
  0.13245000000000001         -1.0204790124985806E-009
  0.13329999999999997         -9.8983476083770586E-010
  0.13414999999999999         -9.0416300154609676E-010
  0.13500000000000001         -7.6161805298205032E-010
  0.13584999999999997         -5.6123740090633933E-010
  0.13669999999999999         -3.0258758236591322E-010
  0.13755000000000001          1.4658439464492999E-011
  0.13839999999999997          3.9119576639677481E-010
  0.13924999999999998          8.2858583475117527E-010
  0.14010000000000000          1.3297844732345092E-009
  0.14094999999999996          1.8996787832063346E-009
  0.14179999999999998          2.5456347241906301E-009
  0.14265000000000000          3.2780329944537426E-009
  0.14350000000000002          4.1108306791591234E-009
  0.14434999999999998          5.0621453121050712E-009
  0.14520000000000000          6.1548362835470437E-009
  0.14605000000000001          7.4170702697837825E-009
  0.14689999999999998          8.8829512772302955E-009
  0.14774999999999999          1.0593174646989381E-008
  0.14860000000000001          1.2595677618763618E-008
  0.14944999999999997          1.4946379657896537E-008
  0.15029999999999999          1.7710027598791052E-008
  0.15115000000000001          2.0961210153081226E-008
  0.15199999999999997          2.4785510630914129E-008
  0.15284999999999999          2.9280852889996922E-008
  0.15370000000000000          3.4559072933408399E-008
  0.15454999999999997          4.0747845612133647E-008
  0.15539999999999998          4.7992874516359058E-008
  0.15625000000000000          5.6460420721048541E-008
  0.15709999999999996          6.6339986322244790E-008
  0.15794999999999998          7.7847641083172552E-008
  0.15880000000000000          9.1229569026214322E-008
  0.15965000000000001          1.0676608069543440E-007
  0.16049999999999998          1.2477598500528202E-007
  0.16134999999999999          1.4562112804548833E-007
  0.16220000000000001          1.6971125941707412E-007
  0.16304999999999997          1.9750875879708338E-007
  0.16389999999999999          2.2953400113770212E-007
  0.16475000000000001          2.6637017176211547E-007
  0.16559999999999997          3.0866883813518221E-007
  0.16644999999999999          3.5715512419474071E-007
  0.16730000000000000          4.1263346316669907E-007
  0.16814999999999997          4.7599290975538672E-007
  0.16899999999999998          5.4821323567251022E-007
  0.16985000000000000          6.3037130365946990E-007
  0.17069999999999996          7.2364693154085111E-007
  0.17154999999999998          8.2933022897778308E-007
  0.17240000000000000          9.4882928656041739E-007
  0.17325000000000002          1.0836760876416601E-006
  0.17409999999999998          1.2355341678979267E-006
  0.17494999999999999          1.4062046695177308E-006
  0.17580000000000001          1.5976321762233236E-006
  0.17664999999999997          1.8119096419689999E-006
  0.17749999999999999          2.0512832456654382E-006
  0.17835000000000001          2.3181578697703621E-006
  0.17919999999999997          2.6150959936970759E-006
  0.18004999999999999          2.9448170540420658E-006
  0.18090000000000001          3.3101945540942405E-006
  0.18174999999999997          3.7142535937456912E-006
  0.18259999999999998          4.1601596404654460E-006
  0.18345000000000000          4.6512088582952445E-006
  0.18429999999999996          5.1908120981949683E-006
  0.18514999999999998          5.7824791855475216E-006
  0.18600000000000000          6.4297958946243340E-006
  0.18684999999999996          7.1363976634180087E-006
  0.18769999999999998          7.9059440335403451E-006
  0.18855000000000000          8.7420868352154914E-006
  0.18940000000000001          9.6484249326601004E-006
  0.19024999999999997          1.0628472575773482E-005
  0.19109999999999999          1.1685607752777878E-005
  0.19195000000000001          1.2823026862629158E-005
  0.19279999999999997          1.4043682774137039E-005
  0.19364999999999999          1.5350224356795200E-005
  0.19450000000000001          1.6744920510087016E-005
  0.19534999999999997          1.8229604697802696E-005
  0.19619999999999999          1.9805600886469137E-005
  0.19705000000000000          2.1473637156499601E-005
  0.19789999999999996          2.3233760875169164E-005
  0.19874999999999998          2.5085227788941719E-005
  0.19960000000000000          2.7026441127229283E-005
  0.20044999999999996          2.9054857168813793E-005
  0.20129999999999998          3.1166890888646159E-005
  0.20215000000000000          3.3357799112771180E-005
  0.20300000000000001          3.5621617937929873E-005
  0.20384999999999998          3.7951066336894090E-005
  0.20469999999999999          4.0337497476917608E-005
  0.20555000000000001          4.2770800710614287E-005
  0.20639999999999997          4.5239354011174242E-005
  0.20724999999999999          4.7729947330055245E-005
  0.20810000000000001          5.0227777861681783E-005
  0.20894999999999997          5.2716432187211740E-005
  0.20979999999999999          5.5177851103260979E-005
  0.21065000000000000          5.7592369480531464E-005
  0.21149999999999997          5.9938732707412790E-005
  0.21234999999999998          6.2194178130491742E-005
  0.21320000000000000          6.4334477749054914E-005
  0.21404999999999996          6.6334038082064892E-005
  0.21489999999999998          6.8166048716677513E-005
  0.21575000000000000          6.9802633550408391E-005
  0.21659999999999996          7.1215003181814975E-005
  0.21744999999999998          7.2373666673364103E-005
  0.21829999999999999          7.3248666526722189E-005
  0.21915000000000001          7.3809847252462034E-005
  0.21999999999999997          7.4027109670810900E-005
  0.22084999999999999          7.3870717145809516E-005
  0.22170000000000001          7.3311620361388863E-005
  0.22254999999999997          7.2321818166925906E-005
  0.22339999999999999          7.0874728239654018E-005
  0.22425000000000000          6.8945570773580714E-005
  0.22509999999999997          6.6511673057542751E-005
  0.22594999999999998          6.3552821077768538E-005
  0.22680000000000000          6.0051730465048974E-005
  0.22764999999999996          5.5994449394115487E-005
  0.22849999999999998          5.1370704653136694E-005
  0.22935000000000000          4.6174225897211556E-005
  0.23019999999999996          4.0403049138793159E-005
  0.23104999999999998          3.4059765498417103E-005
  0.23190000000000000          2.7151823668090924E-005
  0.23275000000000001          1.9691783417892399E-005
  0.23359999999999997          1.1697496231175458E-005
  0.23444999999999999          3.1922165964013718E-006
  0.23530000000000001         -5.7953492044784859E-006
  0.23614999999999997         -1.5231028900296839E-005
  0.23699999999999999         -2.5075199900254003E-005
  0.23785000000000001         -3.5282871540851341E-005
  0.23869999999999997         -4.5803892930337725E-005
  0.23954999999999999         -5.6583227689117001E-005
  0.24040000000000000         -6.7561217796467004E-005
  0.24124999999999996         -7.8673887728490920E-005
  0.24209999999999998         -8.9853384563434938E-005
  0.24295000000000000         -1.0102854683245233E-004
  0.24379999999999996         -1.1212546098528266E-004
  0.24464999999999998         -1.2306800199196524E-004
  0.24550000000000000         -1.3377845505092381E-004
  0.24634999999999996         -1.4417822508904285E-004
  0.24719999999999998         -1.5418854500876645E-004
  0.24804999999999999         -1.6373128669557878E-004
  0.24890000000000001         -1.7272968208488439E-004
  0.24974999999999997         -1.8110912766436892E-004
  0.25059999999999999         -1.8879789039778828E-004
  0.25145000000000001         -1.9572785333378664E-004
  0.25229999999999997         -2.0183530462024294E-004
  0.25314999999999999         -2.0706160073706434E-004
  0.25400000000000000         -2.1135390267477876E-004
  0.25484999999999997         -2.1466572867015823E-004
  0.25569999999999998         -2.1695745710734082E-004
  0.25655000000000000         -2.1819686344961761E-004
  0.25739999999999996         -2.1835960586804774E-004
  0.25824999999999998         -2.1742955434527495E-004
  0.25910000000000000         -2.1539899184499860E-004
  0.25994999999999996         -2.1226874606702277E-004
  0.26079999999999998         -2.0804830151353493E-004
  0.26164999999999999         -2.0275591397739967E-004
  0.26249999999999996         -1.9641846847111389E-004
  0.26334999999999997         -1.8907109492975394E-004
  0.26419999999999999         -1.8075697479005563E-004
  0.26505000000000001         -1.7152697215151732E-004
  0.26589999999999997         -1.6143935207200318E-004
  0.26674999999999999         -1.5055904191278773E-004
  0.26760000000000000         -1.3895699050255796E-004
  0.26844999999999997         -1.2670950720336586E-004
  0.26929999999999998         -1.1389767780319016E-004
  0.27015000000000000         -1.0060664019001739E-004
  0.27099999999999996         -8.6924646154917925E-005
  0.27184999999999998         -7.2942080652183846E-005
  0.27270000000000000         -5.8750697734171890E-005
  0.27354999999999996         -4.4442934507349683E-005
  0.27439999999999998         -3.0111079289388372E-005
  0.27524999999999999         -1.5846287083653193E-005
  0.27609999999999996         -1.7376589901565181E-006
  0.27694999999999997          1.2128499696034283E-005
  0.27779999999999999          2.5669269269095358E-005
  0.27865000000000001          3.8805799690051163E-005
  0.27949999999999997          5.1464027146865045E-005
  0.28034999999999999          6.3575288319858657E-005
  0.28120000000000001          7.5076790494071877E-005
  0.28204999999999997          8.5911943845936383E-005
  0.28289999999999998          9.6030679310018000E-005
  0.28375000000000000          1.0538975432166256E-004
  0.28459999999999996          1.1395307647667682E-004
  0.28544999999999998          1.2169178779817730E-004
  0.28630000000000000          1.2858419742606448E-004
  0.28714999999999996          1.3461578196744410E-004
  0.28799999999999998          1.3977904634828055E-004
  0.28885000000000000          1.4407340026507487E-004
  0.28969999999999996          1.4750496527203707E-004
  0.29054999999999997          1.5008622663279829E-004
  0.29139999999999999          1.5183563070085630E-004
  0.29224999999999995          1.5277714408237268E-004
  0.29309999999999997          1.5293982820575511E-004
  0.29394999999999999          1.5235743451589526E-004
  0.29480000000000001          1.5106782160332477E-004
  0.29564999999999997          1.4911242471101730E-004
  0.29649999999999999          1.4653571815746887E-004
  0.29735000000000000          1.4338468735248410E-004
  0.29819999999999997          1.3970832641206513E-004
  0.29904999999999998          1.3555712843316806E-004
  0.29990000000000000          1.3098254124221503E-004
  0.30074999999999996          1.2603639378898807E-004
  0.30159999999999998          1.2077039015793521E-004
  0.30245000000000000          1.1523573372320617E-004
  0.30329999999999996          1.0948271621915498E-004
  0.30414999999999998          1.0356030363493202E-004
  0.30499999999999999          9.7515736641386660E-005
  0.30584999999999996          9.1394173572787395E-005
  0.30669999999999997          8.5238536598849121E-005
  0.30754999999999999          7.9089290545619181E-005
  0.30840000000000001          7.2984258901064451E-005
  0.30924999999999997          6.6958391114676702E-005
  0.31009999999999999          6.1043612362055857E-005
  0.31095000000000000          5.5268797718245654E-005
  0.31179999999999997          4.9659743034313873E-005
  0.31264999999999998          4.4239194269184894E-005
  0.31350000000000000          3.9026828235118579E-005
  0.31434999999999996          3.4039268073501125E-005
  0.31519999999999998          2.9290163522397980E-005
  0.31605000000000000          2.4790327461769650E-005
  0.31689999999999996          2.0547886836450750E-005
  0.31774999999999998          1.6568406085763223E-005
  0.31859999999999999          1.2854952542249410E-005
  0.31944999999999996          9.4082791904084125E-006
  0.32029999999999997          6.2271135306584121E-006
  0.32114999999999999          3.3084086882580441E-006
  0.32199999999999995          6.4743768971422301E-007
  0.32284999999999997         -1.7621423343189402E-006
  0.32369999999999999         -3.9280955112370338E-006
  0.32455000000000001         -5.8592770446809070E-006
  0.32539999999999997         -7.5654083174315752E-006
  0.32624999999999998         -9.0570376721390406E-006
  0.32710000000000000         -1.0345462999325677E-005
  0.32794999999999996         -1.1442470207153795E-005
  0.32879999999999998         -1.2360045992175102E-005
  0.32965000000000000         -1.3110268859629562E-005
  0.33049999999999996         -1.3705325930568527E-005
  0.33134999999999998         -1.4157444565308821E-005
  0.33220000000000000         -1.4478704921266986E-005
  0.33304999999999996         -1.4680882173699611E-005
  0.33389999999999997         -1.4775419924537373E-005
  0.33474999999999999         -1.4773420860333949E-005
  0.33559999999999995         -1.4685549023980410E-005
  0.33644999999999997         -1.4521927394536361E-005
  0.33729999999999999         -1.4292105621841600E-005
  0.33815000000000001         -1.4005081935979828E-005
  0.33899999999999997         -1.3669300508181064E-005
  0.33984999999999999         -1.3292603795528840E-005
  0.34070000000000000         -1.2882196997918063E-005
  0.34154999999999996         -1.2444666241911527E-005
  0.34239999999999998         -1.1986050333487788E-005
  0.34325000000000000         -1.1511889426637088E-005