 -0.12000000000000000          0.0000000000000000
 -0.11914999999999999          0.0000000000000000
 -0.11830000000000000          0.0000000000000000
 -0.11745000000000000         -4.2518445607075969E-012
 -0.11660000000000000         -2.0150591277172602E-011
 -0.11574999999999999         -4.1994627546704350E-011
 -0.11490000000000000         -2.5118669347867679E-011
 -0.11405000000000000          1.2091312055275687E-010
 -0.11320000000000000          4.7987363354437117E-010
 -0.11234999999999999          9.9911342336761834E-010
 -0.11150000000000000          1.3275749572194168E-009
 -0.11065000000000000          7.4849777821415396E-010
 -0.10979999999999999         -1.6207632237757924E-009
 -0.10894999999999999         -6.2473493370049199E-009
 -0.10810000000000000         -1.2304364210306306E-008
 -0.10725000000000000         -1.6880569782622457E-008
 -0.10639999999999999         -1.4928459720705600E-008
 -0.10554999999999999         -6.2376820088763434E-010
 -0.10470000000000000          2.9590390042691626E-008
 -0.10385000000000000          7.2851301754838932E-008
 -0.10299999999999999          1.1626221272669147E-007
 -0.10214999999999999          1.3625767282132468E-007
 -0.10130000000000000          1.0330429023775371E-007
 -0.10045000000000000         -7.1170169448680604E-009
  -9.9599999999999994E-002    -1.9899990880295053E-007
  -9.8750000000000004E-002    -4.4077338061835997E-007
  -9.7900000000000001E-002    -6.5818492892343370E-007
  -9.7049999999999997E-002    -7.4263409329668366E-007
  -9.6199999999999994E-002    -5.7908794610270528E-007
  -9.5349999999999990E-002    -9.0907303151988808E-008
  -9.4500000000000001E-002     7.0961610186209533E-007
  -9.3649999999999997E-002     1.6834180287860019E-006
  -9.2799999999999994E-002     2.5601675700098603E-006
  -9.1950000000000004E-002     2.9823376004292240E-006
  -9.1100000000000000E-002     2.5995535058150230E-006
  -9.0249999999999997E-002     1.1961478392343417E-006
  -8.9399999999999993E-002    -1.1833992315061096E-006
  -8.8549999999999990E-002    -4.1569098457154464E-006
  -8.7700000000000000E-002    -7.0171143169971907E-006
  -8.6849999999999997E-002    -8.8567100287479223E-006
  -8.5999999999999993E-002    -8.7950879505652060E-006
  -8.5150000000000003E-002    -6.2584028142707476E-006
  -8.4300000000000000E-002    -1.2352880005791507E-006
  -8.3449999999999996E-002     5.5788327264129533E-006
  -8.2600000000000007E-002     1.2817861263414268E-005
  -8.1749999999999989E-002     1.8686562401585253E-005
  -8.0900000000000000E-002     2.1372514973966155E-005
  -8.0049999999999996E-002     1.9535401271609601E-005
  -7.9199999999999993E-002     1.2743330439206488E-005
  -7.8350000000000003E-002     1.7244101558961114E-006
  -7.7499999999999999E-002    -1.1659296650288411E-005
  -7.6649999999999996E-002    -2.4737521157784331E-005
  -7.5800000000000006E-002    -3.4595680276057094E-005
  -7.4949999999999989E-002    -3.8744375984222523E-005
  -7.4099999999999999E-002    -3.5725780570216876E-005
  -7.3249999999999996E-002    -2.5499273218670040E-005
  -7.2399999999999992E-002    -9.5055471430258136E-006
  -7.1550000000000002E-002     9.6065259575435557E-006
  -7.0699999999999999E-002     2.8517663493656397E-005
  -6.9849999999999995E-002     4.3902873716566877E-005
  -6.9000000000000006E-002     5.3062760900442488E-005
  -6.8149999999999988E-002     5.4383905248643635E-005
  -6.7299999999999999E-002     4.7549376378475595E-005
  -6.6449999999999995E-002     3.3493045034995128E-005
  -6.5599999999999992E-002     1.4153403613933082E-005
  -6.4750000000000002E-002    -7.8838284454578886E-006
  -6.3899999999999998E-002    -2.9765525091970261E-005
  -6.3049999999999995E-002    -4.8712811095620942E-005
  -6.2199999999999998E-002    -6.2302059724844496E-005
  -6.1350000000000002E-002    -6.8692331484662567E-005
  -6.0499999999999998E-002    -6.6815515094927720E-005
  -5.9650000000000002E-002    -5.6531217905517887E-005
  -5.8799999999999998E-002    -3.8723064637790402E-005
  -5.7950000000000002E-002    -1.5290599140809432E-005
  -5.7099999999999998E-002     1.1008552281106852E-005
  -5.6249999999999994E-002     3.6886781108246713E-005
  -5.5400000000000005E-002     5.8996209900493365E-005
  -5.4550000000000001E-002     7.4459162480658363E-005
  -5.3699999999999998E-002     8.1342228488100830E-005
  -5.2849999999999994E-002     7.8956895916086037E-005
  -5.2000000000000005E-002     6.7907169916904927E-005
  -5.1150000000000001E-002     4.9876148939959312E-005
  -5.0299999999999997E-002     2.7218937561187286E-005
  -4.9449999999999994E-002     2.4852542810366098E-006
  -4.8600000000000004E-002    -2.1988071802487228E-005
  -4.7750000000000001E-002    -4.4310446010519994E-005
  -4.6899999999999997E-002    -6.3060535108135532E-005
  -4.6049999999999994E-002    -7.7145791483825942E-005
  -4.5200000000000004E-002    -8.5606890395180756E-005
  -4.4350000000000001E-002    -8.7494244924985918E-005
  -4.3499999999999997E-002    -8.1910935903453308E-005
  -4.2649999999999993E-002    -6.8245303564720542E-005
  -4.1800000000000004E-002    -4.6530910337694268E-005
  -4.0950000000000000E-002    -1.7806858164460533E-005
  -4.0099999999999997E-002     1.5668176251229445E-005
  -3.9249999999999993E-002     5.0465904705653775E-005
  -3.8400000000000004E-002     8.2341664541149908E-005
  -3.7550000000000000E-002     1.0684368916945010E-004
  -3.6699999999999997E-002     1.2005529538599804E-004
  -3.5850000000000007E-002     1.1930877112672030E-004
  -3.5000000000000003E-002     1.0372160956520642E-004
  -3.4150000000000000E-002     7.4454196211364826E-005
  -3.3299999999999996E-002     3.4652961808335022E-005
  -3.2450000000000007E-002    -1.0896538687870466E-005
  -3.1600000000000003E-002    -5.6345920563872530E-005
  -3.0750000000000000E-002    -9.5516971120460900E-005
  -2.9899999999999996E-002    -1.2271776213005042E-004
  -2.9050000000000006E-002    -1.3357209314192079E-004
  -2.8200000000000003E-002    -1.2577289522998909E-004
  -2.7349999999999999E-002    -9.9650362197483414E-005
  -2.6499999999999996E-002    -5.8417861357150963E-005
  -2.5650000000000006E-002    -7.9679611862476193E-006
  -2.4800000000000003E-002     4.3860231730518174E-005
  -2.3949999999999999E-002     8.8510089512993444E-005
  -2.3099999999999996E-002     1.1826540283186360E-004
  -2.2250000000000006E-002     1.2783328965171076E-004
  -2.1400000000000002E-002     1.1557442608386485E-004
  -2.0549999999999999E-002     8.4030131751891454E-005
  -1.9699999999999995E-002     3.9528328483252445E-005
  -1.8850000000000006E-002    -9.1169664615452659E-006
  -1.8000000000000002E-002    -5.2548922824685983E-005
  -1.7149999999999999E-002    -8.2980449687901047E-005
  -1.6299999999999995E-002    -9.5928655026421891E-005
  -1.5450000000000005E-002    -9.1089177368819510E-005
  -1.4600000000000002E-002    -7.2112296217536424E-005
  -1.3749999999999998E-002    -4.5338677176485688E-005
  -1.2899999999999995E-002    -1.7876938127562551E-005
  -1.2050000000000005E-002     4.4030785007211094E-006
  -1.1200000000000002E-002     1.8362919667369235E-005
  -1.0349999999999998E-002     2.4141001336594604E-005
  -9.5000000000000084E-003     2.4605708025238982E-005
  -8.6500000000000049E-003     2.3935302118735879E-005
  -7.8000000000000014E-003     2.5786035479713419E-005
  -6.9499999999999978E-003     3.1724190030142768E-005
  -6.1000000000000082E-003     4.0400576464772245E-005
  -5.2500000000000047E-003     4.7844556978680121E-005
  -4.4000000000000011E-003     4.8747042553726682E-005
  -3.5499999999999976E-003     3.8434139036432830E-005
  -2.7000000000000079E-003     1.4798298593556845E-005
  -1.8500000000000044E-003    -2.0296539784889106E-005
  -1.0000000000000009E-003    -6.0802973692644787E-005
  -1.4999999999999736E-004    -9.7559458735525686E-005
   6.9999999999999230E-004    -1.2041938039529526E-004
   1.5499999999999958E-003    -1.2093355657995009E-004
   2.3999999999999994E-003    -9.4879645873556173E-005
   3.2500000000000029E-003    -4.3914285277163383E-005
   4.0999999999999925E-003     2.4240684625877133E-005
   4.9499999999999961E-003     9.7021881475359967E-005
   5.7999999999999996E-003     1.5963478754659556E-004
   6.6499999999999893E-003     1.9848972156757451E-004
   7.5000000000000067E-003     2.0440321108947682E-004
   8.3499999999999963E-003     1.7522057522973246E-004
   9.1999999999999860E-003     1.1657355889927394E-004
   1.0050000000000003E-002     4.1263346503947511E-005
   1.0899999999999993E-002    -3.3405273610730165E-005
   1.1750000000000010E-002    -8.9216810509127893E-005
   1.2600000000000000E-002    -1.1110224994334079E-004
   1.3449999999999990E-002    -9.0320417386827265E-005
   1.4300000000000007E-002    -2.6554937194019849E-005
   1.5149999999999997E-002     7.2491025524317734E-005
   1.5999999999999986E-002     1.9323228364582671E-004
   1.6850000000000004E-002     3.1970591524572132E-004
   1.7699999999999994E-002     4.3780478878218038E-004
   1.8549999999999983E-002     5.3928459534019133E-004
   1.9400000000000001E-002     6.2357189760844109E-004
   2.0249999999999990E-002     6.9792358472397804E-004
   2.1100000000000008E-002     7.7504973856459868E-004
   2.1949999999999997E-002     8.7065669899213168E-004
   2.2799999999999987E-002     9.9891514278267562E-004
   2.3650000000000004E-002     1.1692128904027710E-003
   2.4499999999999994E-002     1.3860413398138636E-003
   2.5349999999999984E-002     1.6490973978394161E-003
   2.6200000000000001E-002     1.9559800030149025E-003
   2.7049999999999991E-002     2.3057231865156341E-003
   2.7900000000000008E-002     2.7016430276722114E-003
   2.8749999999999998E-002     3.1524467617205076E-003
   2.9599999999999987E-002     3.6724487653914009E-003
   3.0450000000000005E-002     4.2790356394198413E-003
   3.1299999999999994E-002     4.9884141344939750E-003
   3.2149999999999984E-002     5.8129162357246026E-003
   3.3000000000000002E-002     6.7574876185056603E-003
   3.3849999999999991E-002     7.8204568878737328E-003
   3.4700000000000009E-002     8.9969198738260800E-003
   3.5549999999999998E-002     1.0280198449574049E-002
   3.6399999999999988E-002     1.1670114463810551E-002
   3.7250000000000005E-002     1.3174597280177430E-002
   3.8099999999999995E-002     1.4807530061715476E-002
   3.8949999999999985E-002     1.6591557893396013E-002
   3.9800000000000002E-002     1.8553111504311433E-002
   4.0649999999999992E-002     2.0715322051583877E-002
   4.1500000000000009E-002     2.3098775032094093E-002
   4.2349999999999999E-002     2.5712126119646548E-002
   4.3199999999999988E-002     2.8561572739419526E-002
   4.4050000000000006E-002     3.1648851855461346E-002
   4.4899999999999995E-002     3.4973178388307255E-002
   4.5749999999999985E-002     3.8533689596525242E-002
   4.6600000000000003E-002     4.2341861988118082E-002
   4.7449999999999992E-002     4.6397781236904023E-002
   4.8299999999999982E-002     5.0709503456081814E-002
   4.9149999999999999E-002     5.5271605341259786E-002
   4.9999999999999989E-002     6.0078222356026001E-002
   5.0850000000000006E-002     6.5105143982669367E-002
   5.1699999999999996E-002     7.0317358543745351E-002
   5.2549999999999986E-002     7.5673633275059118E-002
   5.3400000000000003E-002     8.1131058192198902E-002
   5.4249999999999993E-002     8.6654854506717713E-002
   5.5099999999999982E-002     9.2213058105293358E-002
   5.5950000000000000E-002     9.7770709290806210E-002
   5.6799999999999989E-002    0.10329253208800343
   5.7650000000000007E-002    0.10873651491834407
   5.8499999999999996E-002    0.11403735954592277
   5.9349999999999986E-002    0.11913643140156210
   6.0200000000000004E-002    0.12391992676819083
   6.1049999999999993E-002    0.12829094645310635
   6.1899999999999983E-002    0.13212085372687113
   6.2750000000000000E-002    0.13530183164395440
   6.3599999999999990E-002    0.13770007306412926
   6.4450000000000007E-002    0.13921788757374468
   6.5299999999999997E-002    0.13972294540217883
   6.6149999999999987E-002    0.13913167886238775
   6.7000000000000004E-002    0.13731944266954679
   6.7849999999999994E-002    0.13416823928550575
   6.8699999999999983E-002    0.12957574310788886
   6.9550000000000001E-002    0.12338973637669937
   7.0399999999999990E-002    0.11550135914437801
   7.1249999999999980E-002    0.10577806335664738
   7.2099999999999997E-002     9.4105092898521578E-002
   7.2949999999999987E-002     8.0411401477491831E-002
   7.3800000000000004E-002     6.4604542115574481E-002
   7.4649999999999994E-002     4.6641601269743635E-002
   7.5499999999999984E-002     2.6498500101483732E-002
   7.6350000000000001E-002     4.1573493606729683E-003
   7.7199999999999991E-002    -2.0430835547980718E-002
   7.8049999999999981E-002    -4.7206125281845798E-002
   7.8899999999999998E-002    -7.6217892550920763E-002
   7.9749999999999988E-002   -0.10735833498276542
   8.0600000000000005E-002   -0.14057524172388910
   8.1449999999999995E-002   -0.17569114142153655
   8.2299999999999984E-002   -0.21258666831633330
   8.3150000000000002E-002   -0.25097563738836592
   8.3999999999999991E-002   -0.29061924986466803
   8.4849999999999981E-002   -0.33118141834470760
   8.5699999999999998E-002   -0.37237286253333512
   8.6549999999999988E-002   -0.41385245518532421
   8.7400000000000005E-002   -0.45524258431709330
   8.8249999999999995E-002   -0.49621237722801070
   8.9099999999999985E-002   -0.53639560018768839
   8.9950000000000002E-002   -0.57532218903997689
   9.0799999999999992E-002   -0.61259556209102595
   9.1649999999999981E-002   -0.64773053428343386
   9.2499999999999999E-002   -0.68026880178002025
   9.3349999999999989E-002   -0.70971387816246312
   9.4200000000000006E-002   -0.73557085946233869
   9.5049999999999996E-002   -0.75735158079062392
   9.5899999999999985E-002   -0.77454624848798570
   9.6750000000000003E-002   -0.78675959667520767
   9.7599999999999992E-002   -0.79356295645788111
   9.8449999999999982E-002   -0.79466667225135001
   9.9299999999999999E-002   -0.78975931106993946
  0.10014999999999999        -0.77846030954337020
  0.10099999999999998        -0.76058927537429000
  0.10185000000000000        -0.73591424703066832
  0.10269999999999999        -0.70424939725465685
  0.10355000000000000        -0.66553240426254978
  0.10439999999999999        -0.61976160727075502
  0.10524999999999998        -0.56708747737831378
  0.10610000000000000        -0.50757512278253947
  0.10694999999999999        -0.44149954873360053
  0.10779999999999998        -0.36918564954116179
  0.10865000000000000        -0.29110474594291930
  0.10949999999999999        -0.20764643372207525
  0.11035000000000000        -0.11942506375044876
  0.11119999999999999         -2.6968764967470638E-002
  0.11204999999999998          6.8970328530670755E-002
  0.11290000000000000         0.16780599589139641
  0.11374999999999999         0.26874418227090280
  0.11459999999999998         0.37104159505393158
  0.11545000000000000         0.47377859073712159
  0.11629999999999999         0.57603370392253095
  0.11715000000000000         0.67688394560908982
  0.11799999999999999         0.77538998004877169
  0.11884999999999998         0.87061458590815710
  0.11970000000000000         0.96167966823815965
  0.12054999999999999          1.0476415402243477
  0.12139999999999998          1.1276880553225610
  0.12225000000000000          1.2010046513677453
  0.12309999999999999          1.2668570551729419
  0.12395000000000000          1.3245701165937271
  0.12479999999999999          1.3734673565549331
  0.12564999999999998          1.4129703092129944
  0.12650000000000000          1.4425724657110881
  0.12734999999999999          1.4619213835788643
  0.12819999999999998          1.4706514968121494
  0.12905000000000000          1.4686243422699312
  0.12989999999999999          1.4557610553172673
  0.13074999999999998          1.4320565984331515
  0.13159999999999999          1.3977507758005501
  0.13245000000000001          1.3530862412146456
  0.13329999999999997          1.2983724350318468
  0.13414999999999999          1.2341099464874312
  0.13500000000000001          1.1607101893835194
  0.13584999999999997          1.0788055785754251
  0.13669999999999999         0.98920424113087690
  0.13755000000000001         0.89250117839094578
  0.13839999999999997         0.78957240442149623
  0.13924999999999998         0.68145497261392807
  0.14010000000000000         0.56889590512964050
  0.14094999999999996         0.45302775548022212
  0.14179999999999998         0.33482723805527148
  0.14265000000000000         0.21535021704029744
  0.14350000000000002          9.5646322453552646E-002
  0.14434999999999998         -2.3254075413128295E-002
  0.14520000000000000        -0.14036501626657405
  0.14605000000000001        -0.25469884427687045
  0.14689999999999998        -0.36541167041293260
  0.14774999999999999        -0.47169881990571189
  0.14860000000000001        -0.57261430918876499
  0.14944999999999997        -0.66747009598448837
  0.15029999999999999        -0.75555632461148925
  0.15115000000000001        -0.83633034207264945
  0.15199999999999997        -0.90910656293379721
  0.15284999999999999        -0.97359916178770067
  0.15370000000000000         -1.0293846249200580
  0.15454999999999997         -1.0762034883969935
  0.15539999999999998         -1.1139413250145371
  0.15625000000000000         -1.1425292019509827
  0.15709999999999996         -1.1619750991211890
  0.15794999999999998         -1.1724864143249905
  0.15880000000000000         -1.1741373865649831
  0.15965000000000001         -1.1672843317751518
  0.16049999999999998         -1.1521840174084370
  0.16134999999999999         -1.1293188434809542
  0.16220000000000001         -1.0990980093641076
  0.16304999999999997         -1.0620688082386103
  0.16389999999999999         -1.0188828860336963
  0.16475000000000001        -0.97011084829335803
  0.16559999999999997        -0.91643376197887016
  0.16644999999999999        -0.85852480839179668
  0.16730000000000000        -0.79703159552409397
  0.16814999999999997        -0.73263635158809071
  0.16899999999999998        -0.66594815005301944
  0.16985000000000000        -0.59766162332821071
  0.17069999999999996        -0.52841460249296657
  0.17154999999999998        -0.45879218726557414
  0.17240000000000000        -0.38943515666813588
  0.17325000000000002        -0.32091347030945749
  0.17409999999999998        -0.25381969712313002
  0.17494999999999999        -0.18866035175457702
  0.17580000000000001        -0.12588196221141484
  0.17664999999999997         -6.5880729475990135E-002
  0.17749999999999999         -9.0361226870979139E-003
  0.17835000000000001          4.4364598081842566E-002
  0.17919999999999997          9.4130649788112600E-002
  0.18004999999999999         0.14006182173912685
  0.18090000000000001         0.18202685734358520
  0.18174999999999997         0.21991106596992610
  0.18259999999999998         0.25367064155536739
  0.18345000000000000         0.28327183718340559
  0.18429999999999996         0.30872245343672056
  0.18514999999999998         0.33008542686547454
  0.18600000000000000         0.34747110894475969
  0.18684999999999996         0.36099224010170616
  0.18769999999999998         0.37086557633573719
  0.18855000000000000         0.37727167890925550
  0.18940000000000001         0.38043495382666637
  0.19024999999999997         0.38059626077713116
  0.19109999999999999         0.37798814797395713
  0.19195000000000001         0.37284000125574673
  0.19279999999999997         0.36540144308905420
  0.19364999999999999         0.35588339013857873
  0.19450000000000001         0.34450636542492141
  0.19534999999999997         0.33151909539837987
  0.19619999999999999         0.31715887114801511
  0.19705000000000000         0.30165986882424750
  0.19789999999999996         0.28528048031688769
  0.19874999999999998         0.26826318255200765
  0.19960000000000000         0.25079935746097592
  0.20044999999999996         0.23311705407098757
  0.20129999999999998         0.21537541119125878
  0.20215000000000000         0.19773663895825749
  0.20300000000000001         0.18032728622417049
  0.20384999999999998         0.16326392093790329
  0.20469999999999999         0.14663362073838102
  0.20555000000000001         0.13053438233629999
  0.20639999999999997         0.11504366531898921
  0.20724999999999999         0.10024242222376226
  0.20810000000000001          8.6200506833166338E-002
  0.20894999999999997          7.2969944204165027E-002
  0.20979999999999999          6.0613538049463650E-002
  0.21065000000000000          4.9142373138127984E-002
  0.21149999999999997          3.8573988154460448E-002
  0.21234999999999998          2.8887678449124876E-002
  0.21320000000000000          2.0066792367921291E-002
  0.21404999999999996          1.2079487220408379E-002
  0.21489999999999998          4.9105533028556553E-003
  0.21575000000000000         -1.4647247278221261E-003
  0.21659999999999996         -7.0573549010305037E-003
  0.21744999999999998         -1.1876813969058198E-002
  0.21829999999999999         -1.5932266835508302E-002
  0.21915000000000001         -1.9249147295536298E-002
  0.21999999999999997         -2.1862298478293699E-002
  0.22084999999999999         -2.3829955146485279E-002
  0.22170000000000001         -2.5219117374569631E-002
  0.22254999999999997         -2.6117794966137007E-002
  0.22339999999999999         -2.6629449687365886E-002
  0.22425000000000000         -2.6821861926512588E-002
  0.22509999999999997         -2.6760984793724959E-002
  0.22594999999999998         -2.6485506124506321E-002
  0.22680000000000000         -2.6023100166285725E-002
  0.22764999999999996         -2.5391787900602675E-002
  0.22849999999999998         -2.4584129913225890E-002
  0.22935000000000000         -2.3605900782736590E-002
  0.23019999999999996         -2.2477253481518487E-002
  0.23104999999999998         -2.1224603260012735E-002
  0.23190000000000000         -1.9894779371518713E-002
  0.23275000000000001         -1.8540644428357692E-002
  0.23359999999999997         -1.7220038659040357E-002
  0.23444999999999999         -1.5980551589529369E-002
  0.23530000000000001         -1.4859641116186761E-002
  0.23614999999999997         -1.3881813999930374E-002
  0.23699999999999999         -1.3045566873063566E-002
  0.23785000000000001         -1.2330972975034563E-002
  0.23869999999999997         -1.1706939911760859E-002
  0.23954999999999999         -1.1138661482308486E-002
  0.24040000000000000         -1.0594574028344657E-002
  0.24124999999999996         -1.0059932511628742E-002
  0.24209999999999998         -9.5221452186842470E-003
  0.24295000000000000         -8.9862666161839959E-003
  0.24379999999999996         -8.4707023677424286E-003
  0.24464999999999998         -7.9919878525825452E-003
  0.24550000000000000         -7.5647126343798927E-003
  0.24634999999999996         -7.1921652825308741E-003
  0.24719999999999998         -6.8728453429213014E-003
  0.24804999999999999         -6.5843789915770914E-003
  0.24890000000000001         -6.3007658614804641E-003
  0.24974999999999997         -5.9989147487366640E-003
  0.25059999999999999         -5.6575613171536534E-003
  0.25145000000000001         -5.2643167151409506E-003
  0.25229999999999997         -4.8280685926397242E-003
  0.25314999999999999         -4.3627608383728506E-003
  0.25400000000000000         -3.8920017793115120E-003
  0.25484999999999997         -3.4458287000050190E-003
  0.25569999999999998         -3.0438398328605830E-003
  0.25655000000000000         -2.7081645685209862E-003
  0.25739999999999996         -2.4429692330524555E-003
  0.25824999999999998         -2.2491479189903490E-003
  0.25910000000000000         -2.1217965821033005E-003
  0.25994999999999996         -2.0533168528225733E-003
  0.26079999999999998         -2.0364967099659754E-003
  0.26164999999999999         -2.0712863939715996E-003
  0.26249999999999996         -2.1617056388401217E-003
  0.26334999999999997         -2.3095378920626997E-003
  0.26419999999999999         -2.5187672655334020E-003
  0.26505000000000001         -2.7866746657050990E-003
  0.26589999999999997         -3.1032545831198742E-003
  0.26674999999999999         -3.4552091603986803E-003
  0.26760000000000000         -3.8271959201821963E-003
  0.26844999999999997         -4.1955811049646042E-003
  0.26929999999999998         -4.5500355675593806E-003
  0.27015000000000000         -4.8700831133278886E-003
  0.27099999999999996         -5.1495040109951640E-003
  0.27184999999999998         -5.3764773798916834E-003
  0.27270000000000000         -5.5397470436678430E-003
  0.27354999999999996         -5.6285334229584112E-003
  0.27439999999999998         -5.6265753103218212E-003
  0.27524999999999999         -5.5158092893460809E-003
  0.27609999999999996         -5.2847216729906415E-003
  0.27694999999999997         -4.9215215491016217E-003
  0.27779999999999999         -4.4299490337234380E-003
  0.27865000000000001         -3.8214101331194130E-003
  0.27949999999999997         -3.1223583943110777E-003
  0.28034999999999999         -2.3652038759141201E-003
  0.28120000000000001         -1.5833351220632019E-003
  0.28204999999999997         -8.0593498032638811E-004
  0.28289999999999998         -5.1457307122515386E-005
  0.28375000000000000          6.7393111088897672E-004
  0.28459999999999996          1.3769488385593270E-003
  0.28544999999999998          2.0679872676709313E-003
  0.28630000000000000          2.7558100212544722E-003
  0.28714999999999996          3.4394350752429146E-003
  0.28799999999999998          4.1025448647073427E-003
  0.28885000000000000          4.7121786142601861E-003
  0.28969999999999996          5.2229828415114006E-003
  0.29054999999999997          5.5892667057630919E-003
  0.29139999999999999          5.7704474514667526E-003
  0.29224999999999995          5.7449756770019027E-003
  0.29309999999999997          5.5166429890158566E-003
  0.29394999999999999          5.1116138463668257E-003
  0.29480000000000001          4.5778529167661026E-003
  0.29564999999999997          3.9678531114355530E-003
  0.29649999999999999          3.3303619309780546E-003
  0.29735000000000000          2.6990182074848224E-003
  0.29819999999999997          2.0855626480082673E-003
  0.29904999999999998          1.4810141231796328E-003
  0.29990000000000000          8.6435601665795772E-004
  0.30074999999999996          2.1585734093706641E-004
  0.30159999999999998         -4.7463575480452395E-004
  0.30245000000000000         -1.1952247544759376E-003
  0.30329999999999996         -1.9121546937217911E-003
  0.30414999999999998         -2.5741641633531122E-003
  0.30499999999999999         -3.1230609054996770E-003
  0.30584999999999996         -3.5101300426189706E-003
  0.30669999999999997         -3.7090641128400175E-003
  0.30754999999999999         -3.7206595209114887E-003
  0.30840000000000001         -3.5761008793033606E-003
  0.30924999999999997         -3.3278318313290202E-003
  0.31009999999999999         -3.0360818095058468E-003
  0.31095000000000000         -2.7534771783871235E-003
  0.31179999999999997         -2.5120142926288737E-003
  0.31264999999999998         -2.3198831997597274E-003
  0.31350000000000000         -2.1608251950545488E-003
  0.31434999999999996         -2.0037120882156713E-003
  0.31519999999999998         -1.8186363035509342E-003
  0.31605000000000000         -1.5853148915720115E-003
  0.31689999999999996         -1.3073684017816099E-003
  0.31774999999999998         -1.0091341683273805E-003
  0.31859999999999999         -7.3375284317240825E-004
  0.31944999999999996         -5.3053091160706759E-004
  0.32029999999999997         -4.4198002420948882E-004
  0.32114999999999999         -4.9110211411037673E-004
  0.32199999999999995         -6.7779222948680801E-004
  0.32284999999999997         -9.7590468742678833E-004
  0.32369999999999999         -1.3439920814801729E-003
  0.32455000000000001         -1.7335216506451446E-003
  0.32539999999999997         -2.1019555466479478E-003
  0.32624999999999998         -2.4236425551159789E-003
  0.32710000000000000         -2.6886756343764730E-003
  0.32794999999999996         -2.9034567613062589E-003
  0.32879999999999998         -3.0809017221582833E-003
  0.32965000000000000         -3.2344077753865439E-003
  0.33049999999999996         -3.3638435714525529E-003
  0.33134999999999998         -3.4571979984986357E-003
  0.33220000000000000         -3.4855944668556031E-003
  0.33304999999999996         -3.4135167069515764E-003
  0.33389999999999997         -3.2059232510420026E-003
  0.33474999999999999         -2.8391079457992527E-003
  0.33559999999999995         -2.3079307834320871E-003
  0.33644999999999997         -1.6287047798131983E-003
  0.33729999999999999         -8.3578831448861382E-004
  0.33815000000000001          2.7043939582070057E-005
  0.33899999999999997          9.1316210613410706E-004
  0.33984999999999999          1.7843298836692622E-003
  0.34070000000000000          2.6162661514589000E-003
  0.34154999999999996          3.3985397697332965E-003
  0.34239999999999998          4.1306708331105904E-003
  0.34325000000000000          4.8144635624124766E-003
  0.34409999999999996          5.4479027354967175E-003
  0.34494999999999998          6.0193864230510454E-003
  0.34580000000000000          6.5053552667466742E-003
  0.34664999999999996          6.8762133612855483E-003
  0.34749999999999998          7.1014652277231905E-003
  0.34834999999999999          7.1587949235641535E-003
  0.34919999999999995          7.0409224316253204E-003
  0.35004999999999997          6.7575174913645994E-003
  0.35089999999999999          6.3322163248272830E-003
  0.35174999999999995          5.7955894707894737E-003
  0.35259999999999997          5.1764415488082050E-003
  0.35344999999999999          4.4926158967175649E-003
  0.35430000000000000          3.7490813165621511E-003
  0.35514999999999997          2.9369159241472136E-003