 -0.12000000000000000          0.0000000000000000
 -0.11914999999999999          0.0000000000000000
 -0.11830000000000000          0.0000000000000000
 -0.11745000000000000          0.0000000000000000
 -0.11660000000000000          6.1367538346422959E-020
 -0.11574999999999999          1.9293430459436258E-018
 -0.11490000000000000          1.4385444577884895E-017
 -0.11405000000000000          5.9483597376222794E-017
 -0.11320000000000000          1.6478784502077665E-016
 -0.11234999999999999          3.1692583307934607E-016
 -0.11150000000000000          3.6355126648035856E-016
 -0.11065000000000000         -9.9372018006815233E-017
 -0.10979999999999999         -1.7380270795604196E-015
 -0.10894999999999999         -5.2095504609029542E-015
 -0.10810000000000000         -1.0464845173728400E-014
 -0.10725000000000000         -1.5685109844378914E-014
 -0.10639999999999999         -1.6284061898090299E-014
 -0.10554999999999999         -4.8203552030188233E-015
 -0.10470000000000000          2.7141291177570923E-014
 -0.10385000000000000          8.4514261942199708E-014
 -0.10299999999999999          1.6186878054740880E-013
 -0.10214999999999999          2.3632607434721891E-013
 -0.10130000000000000          2.6394518359628644E-013
 -0.10045000000000000          1.8431262965977663E-013
  -9.9599999999999994E-002    -6.2860539665402540E-014
  -9.8750000000000004E-002    -5.0872422343554821E-013
  -9.7900000000000001E-002    -1.1191127055779141E-012
  -9.7049999999999997E-002    -1.7629784346271898E-012
  -9.6199999999999994E-002    -2.2020601959345395E-012
  -9.5349999999999990E-002    -2.1186050587888045E-012
  -9.4500000000000001E-002    -1.1911697726742108E-012
  -9.3649999999999997E-002     7.8568144273633960E-013
  -9.2799999999999994E-002     3.7610975496977030E-012
  -9.1950000000000004E-002     7.3090961037861513E-012
  -9.1100000000000000E-002     1.0583909508351024E-011
  -9.0249999999999997E-002     1.2398188574814292E-011
  -8.9399999999999993E-002     1.1449498548202423E-011
  -8.8549999999999990E-002     6.6799271887984928E-012
  -8.7700000000000000E-002    -2.2962646900877704E-012
  -8.6849999999999997E-002    -1.4806954046682298E-011
  -8.5999999999999993E-002    -2.8911975234690879E-011
  -8.5150000000000003E-002    -4.1490039435745215E-011
  -8.4300000000000000E-002    -4.8690794458920309E-011
  -8.3449999999999996E-002    -4.6731139769211189E-011
  -8.2600000000000007E-002    -3.2909166426788202E-011
  -8.1749999999999989E-002    -6.6148493077703746E-012
  -8.0900000000000000E-002     2.9935091827224471E-011
  -8.0049999999999996E-002     7.1496237690035402E-011
  -7.9199999999999993E-002     1.1029785176904590E-010
  -7.8350000000000003E-002     1.3726284257881477E-010
  -7.7499999999999999E-002     1.4377983692725502E-010
  -7.6649999999999996E-002     1.2369417766900769E-010
  -7.5800000000000006E-002     7.5081409730618798E-011
  -7.4949999999999989E-002     1.3627064793960335E-012
  -7.4099999999999999E-002    -8.8571727804634105E-011
  -7.3249999999999996E-002    -1.8136502830832528E-010
  -7.2399999999999992E-002    -2.6120755490145036E-010
  -7.1550000000000002E-002    -3.1251242272192354E-010
  -7.0699999999999999E-002    -3.2273964623681548E-010
  -6.9849999999999995E-002    -2.8480980133139901E-010
  -6.9000000000000006E-002    -1.9863150686031405E-010
  -6.8149999999999988E-002    -7.1457305123434392E-011
  -6.7299999999999999E-002     8.2967208136591704E-011
  -6.6449999999999995E-002     2.4625565211084358E-010
  -6.5599999999999992E-002     3.9785280939445197E-010
  -6.4750000000000002E-002     5.1767605493369115E-010
  -6.3899999999999998E-002     5.8851750985425814E-010
  -6.3049999999999995E-002     5.9792552635287203E-010
  -6.2199999999999998E-002     5.3944629139163289E-010
  -6.1350000000000002E-002     4.1325002959254854E-010
  -6.0499999999999998E-002     2.2624543419584691E-010
  -5.9650000000000002E-002    -8.2098161793335456E-012
  -5.8799999999999998E-002    -2.7095715222450077E-010
  -5.7950000000000002E-002    -5.3808185286364297E-010
  -5.7099999999999998E-002    -7.8245272465942571E-010
  -5.6249999999999994E-002    -9.7584399939099163E-010
  -5.5400000000000005E-002    -1.0916367294282665E-009
  -5.4550000000000001E-002    -1.1079375645807332E-009
  -5.3699999999999998E-002    -1.0107695524095435E-009
  -5.2849999999999994E-002    -7.9684750296803780E-010
  -5.2000000000000005E-002    -4.7539802576058815E-010
  -5.1150000000000001E-002    -6.8562331865514180E-011
  -5.0299999999999997E-002     3.8988233052225743E-010
  -4.9449999999999994E-002     8.5745914974643005E-010
  -4.8600000000000004E-002     1.2872645339911445E-009
  -4.7750000000000001E-002     1.6330056916982661E-009
  -4.6899999999999997E-002     1.8541025690368682E-009
  -4.6049999999999994E-002     1.9201671139067303E-009
  -4.5200000000000004E-002     1.8143199338682893E-009
  -4.4350000000000001E-002     1.5350384692615102E-009
  -4.3499999999999997E-002     1.0964848969514422E-009
  -4.2649999999999993E-002     5.2747177976339120E-010
  -4.1800000000000004E-002    -1.3066430193596671E-010
  -4.0950000000000000E-002    -8.2699768757978739E-010
  -4.0099999999999997E-002    -1.5045422819809421E-009
  -3.9249999999999993E-002    -2.1042586552413707E-009
  -3.8400000000000004E-002    -2.5694835561125463E-009
  -3.7550000000000000E-002    -2.8507112531816199E-009
  -3.6699999999999997E-002    -2.9105357153776028E-009
  -3.5850000000000007E-002    -2.7283729766221734E-009
  -3.5000000000000003E-002    -2.3043690168111854E-009
  -3.4150000000000000E-002    -1.6617592250354108E-009
  -3.3299999999999996E-002    -8.4693909720026566E-010
  -3.2450000000000007E-002     7.3303578251025204E-011
  -3.1600000000000003E-002     1.0175520757835139E-009
  -3.0750000000000000E-002     1.8981581785129594E-009
  -2.9899999999999996E-002     2.6313387050483736E-009
  -2.9050000000000006E-002     3.1475679716098916E-009
  -2.8200000000000003E-002     3.4006122019328702E-009
  -2.7349999999999999E-002     3.3736142121203495E-009
  -2.6499999999999996E-002     3.0810361172264080E-009
  -2.5650000000000006E-002     2.5659593942265216E-009
  -2.4800000000000003E-002     1.8930787976973768E-009
  -2.3949999999999999E-002     1.1385650287398045E-009
  -2.3099999999999996E-002     3.7858549073504779E-010
  -2.2250000000000006E-002    -3.2144324241117848E-010
  -2.1400000000000002E-002    -9.1496587967999623E-010
  -2.0549999999999999E-002    -1.3784060102433965E-009
  -1.9699999999999995E-002    -1.7107987571164347E-009
  -1.8850000000000006E-002    -1.9293827251627356E-009
  -1.8000000000000002E-002    -2.0624228977414554E-009
  -1.7149999999999999E-002    -2.1410436509848005E-009
  -1.6299999999999995E-002    -2.1919240035910649E-009
  -1.5450000000000005E-002    -2.2323432866350811E-009
  -1.4600000000000002E-002    -2.2683628569015669E-009
  -1.3749999999999998E-002    -2.2960806240760545E-009
  -1.2899999999999995E-002    -2.3051156540343764E-009
  -1.2050000000000005E-002    -2.2829990589005719E-009
  -1.1200000000000002E-002    -2.2190455278734769E-009
  -1.0349999999999998E-002    -2.1066149133609719E-009
  -9.5000000000000084E-003    -1.9433022207097173E-009
  -8.6500000000000049E-003    -1.7293450752302130E-009
  -7.8000000000000014E-003    -1.4651759834097499E-009
  -6.9499999999999978E-003    -1.1493698543409726E-009
  -6.1000000000000082E-003    -7.7815766223236324E-010
  -5.2500000000000047E-003    -3.4719061904932503E-010
  -4.4000000000000011E-003     1.4451766821464469E-010
  -3.5499999999999976E-003     6.8932953711214059E-010
  -2.7000000000000079E-003     1.2658703328258056E-009
  -1.8500000000000044E-003     1.8357393757425446E-009
  -1.0000000000000009E-003     2.3434325439104266E-009
  -1.4999999999999736E-004     2.7201461400430793E-009
   6.9999999999999230E-004     2.8911524241932816E-009
   1.5499999999999958E-003     2.7854307595032094E-009
   2.3999999999999994E-003     2.3454729357452220E-009
   3.2500000000000029E-003     1.5349754467599582E-009
   4.0999999999999925E-003     3.4243019940757706E-010
   4.9499999999999961E-003    -1.2205172262115824E-009
   5.7999999999999996E-003    -3.1258792428412925E-009
   6.6499999999999893E-003    -5.3400372483319304E-009
   7.5000000000000067E-003    -7.8361272917267189E-009
   8.3499999999999963E-003    -1.0605525316956334E-008
   9.1999999999999860E-003    -1.3666202134450274E-008
   1.0050000000000003E-002    -1.7066395447459741E-008
   1.0899999999999993E-002    -2.0883473560988274E-008
   1.1750000000000010E-002    -2.5219083405900378E-008
   1.2600000000000000E-002    -3.0192748749946385E-008
   1.3449999999999990E-002    -3.5936253407319645E-008
   1.4300000000000007E-002    -4.2591367896628627E-008
   1.5149999999999997E-002    -5.0311877717439009E-008
   1.5999999999999986E-002    -5.9270459535644020E-008
   1.6850000000000004E-002    -6.9668926503222416E-008
   1.7699999999999994E-002    -8.1750012356367835E-008
   1.8549999999999983E-002    -9.5808251292217239E-008
   1.9400000000000001E-002    -1.1219805661277537E-007
   2.0249999999999990E-002    -1.3133874687529620E-007
   2.1100000000000008E-002    -1.5371606869647359E-007
   2.1949999999999997E-002    -1.7988326239400168E-007
   2.2799999999999987E-002    -2.1046333696755639E-007
   2.3650000000000004E-002    -2.4615515812637270E-007
   2.4499999999999994E-002    -2.8774537327207473E-007
   2.5349999999999984E-002    -3.3612664760070941E-007
   2.6200000000000001E-002    -3.9232082074454277E-007
   2.7049999999999991E-002    -4.5750491682407720E-007
   2.7900000000000008E-002    -5.3303692134941900E-007
   2.8749999999999998E-002    -6.2047924378830118E-007
   2.9599999999999987E-002    -7.2161912720137322E-007
   3.0450000000000005E-002    -8.3848202499994983E-007
   3.1299999999999994E-002    -9.7334891535422129E-007
   3.2149999999999984E-002    -1.1287684213493515E-006
   3.3000000000000002E-002    -1.3075768517793018E-006
   3.3849999999999991E-002    -1.5129252666124111E-006
   3.4700000000000009E-002    -1.7483114699688257E-006
   3.5549999999999998E-002    -2.0176230561997178E-006
   3.6399999999999988E-002    -2.3251824996387411E-006
   3.7250000000000005E-002    -2.6757948413803857E-006
   3.8099999999999995E-002    -3.0747951801758276E-006
   3.8949999999999985E-002    -3.5280891875357399E-006
   3.9800000000000002E-002    -4.0421916834386212E-006
   4.0649999999999992E-002    -4.6242529801670985E-006
   4.1500000000000009E-002    -5.2820919304068807E-006
   4.2349999999999999E-002    -6.0242234341316475E-006
   4.3199999999999988E-002    -6.8598871295807185E-006
   4.4050000000000006E-002    -7.7990831992698200E-006
   4.4899999999999995E-002    -8.8526037380864181E-006
   4.5749999999999985E-002    -1.0032076837950697E-005
   4.6600000000000003E-002    -1.1349990909386176E-005
   4.7449999999999992E-002    -1.2819729774021666E-005
   4.8299999999999982E-002    -1.4455583102488608E-005
   4.9149999999999999E-002    -1.6272766516169526E-005
   4.9999999999999989E-002    -1.8287398256467544E-005
   5.0850000000000006E-002    -2.0516492380393092E-005
   5.1699999999999996E-002    -2.2977921647347457E-005
   5.2549999999999986E-002    -2.5690347497032580E-005
   5.3400000000000003E-002    -2.8673193170108539E-005
   5.4249999999999993E-002    -3.1946564315645484E-005
   5.5099999999999982E-002    -3.5531110032194066E-005
   5.5950000000000000E-002    -3.9447950767386245E-005
   5.6799999999999989E-002    -4.3718524423110153E-005
   5.7650000000000007E-002    -4.8364388504592632E-005
   5.8499999999999996E-002    -5.3407036487438802E-005
   5.9349999999999986E-002    -5.8867724329093223E-005
   6.0200000000000004E-002    -6.4767118329802335E-005
   6.1049999999999993E-002    -7.1125064141625734E-005
   6.1899999999999983E-002    -7.7960275734705690E-005
   6.2750000000000000E-002    -8.5289980557371305E-005
   6.3599999999999990E-002    -9.3129520357511565E-005
   6.4450000000000007E-002    -1.0149202952247539E-004
   6.5299999999999997E-002    -1.1038789112279636E-004
   6.6149999999999987E-002    -1.1982431762722393E-004
   6.7000000000000004E-002    -1.2980495628190199E-004
   6.7849999999999994E-002    -1.4032920783753943E-004
   6.8699999999999983E-002    -1.5139184698774609E-004
   6.9550000000000001E-002    -1.6298242122008008E-004
   7.0399999999999990E-002    -1.7508470421127452E-004
   7.1249999999999980E-002    -1.8767624150714567E-004
   7.2099999999999997E-002    -2.0072774780693431E-004
   7.2949999999999987E-002    -2.1420263750784096E-004
   7.3800000000000004E-002    -2.2805667186400321E-004
   7.4649999999999994E-002    -2.4223728780427045E-004
   7.5499999999999984E-002    -2.5668337461698723E-004
   7.6350000000000001E-002    -2.7132493994057208E-004
   7.7199999999999991E-002    -2.8608269347793751E-004
   7.8049999999999981E-002    -3.0086810058881753E-004
   7.8899999999999998E-002    -3.1558304132640153E-004
   7.9749999999999988E-002    -3.3012005713301343E-004
   8.0600000000000005E-002    -3.4436235411937604E-004
   8.1449999999999995E-002    -3.5818404550710459E-004
   8.2299999999999984E-002    -3.7145045907563021E-004
   8.3150000000000002E-002    -3.8401893606928054E-004
   8.3999999999999991E-002    -3.9573921117255079E-004
   8.4849999999999981E-002    -4.0645418111161756E-004
   8.5699999999999998E-002    -4.1600092604675412E-004
   8.6549999999999988E-002    -4.2421168827178708E-004
   8.7400000000000005E-002    -4.3091552143074952E-004
   8.8249999999999995E-002    -4.3593904925320540E-004
   8.9099999999999985E-002    -4.3910864161249367E-004
   8.9950000000000002E-002    -4.4025166141588686E-004
   9.0799999999999992E-002    -4.3919857307998680E-004
   9.1649999999999981E-002    -4.3578464159362332E-004
   9.2499999999999999E-002    -4.2985195699694239E-004
   9.3349999999999989E-002    -4.2125188825413814E-004
   9.4200000000000006E-002    -4.0984663180965370E-004
   9.5049999999999996E-002    -3.9551164370227933E-004
   9.5899999999999985E-002    -3.7813787741701547E-004
   9.6750000000000003E-002    -3.5763353139210816E-004
   9.7599999999999992E-002    -3.3392637389354271E-004
   9.8449999999999982E-002    -3.0696597121448142E-004
   9.9299999999999999E-002    -2.7672492470167824E-004
  0.10014999999999999         -2.4320135711132225E-004
  0.10099999999999998         -2.0641961945404796E-004
  0.10185000000000000         -1.6643263504419474E-004
  0.10269999999999999         -1.2332212566328130E-004
  0.10355000000000000         -7.7199760235709242E-005
  0.10439999999999999         -2.8207835849172275E-005
  0.10524999999999998          2.3481392277485317E-005
  0.10610000000000000          7.7663844288076102E-005
  0.10694999999999999          1.3410604571972921E-004
  0.10779999999999998          1.9254503776034991E-004
  0.10865000000000000          2.5268948898064905E-004
  0.10949999999999999          3.1422139085184839E-004
  0.11035000000000000          3.7679805392836668E-004
  0.11119999999999999          4.4005344492067017E-004
  0.11204999999999998          5.0360223778780672E-004
  0.11290000000000000          5.6704098389453008E-004
  0.11374999999999999          6.2995246500413408E-004
  0.11459999999999998          6.9190872031762670E-004
  0.11545000000000000          7.5247460987049259E-004
  0.11629999999999999          8.1121220154236804E-004
  0.11715000000000000          8.6768393682179490E-004
  0.11799999999999999          9.2145727237770002E-004
  0.11884999999999998          9.7210885543107337E-004
  0.11970000000000000          1.0192286141231469E-003
  0.12054999999999999          1.0624239477188381E-003
  0.12139999999999998          1.1013233877542842E-003
  0.12225000000000000          1.1355812821463062E-003
  0.12309999999999999          1.1648807331981607E-003
  0.12395000000000000          1.1889374150843572E-003
  0.12479999999999999          1.2075028742689169E-003
  0.12564999999999998          1.2203671291892899E-003
  0.12650000000000000          1.2273616615161933E-003
  0.12734999999999999          1.2283611490829639E-003
  0.12819999999999998          1.2232850438626320E-003
  0.12905000000000000          1.2120992458777326E-003
  0.12989999999999999          1.1948163427431744E-003
  0.13074999999999998          1.1714966969820564E-003
  0.13159999999999999          1.1422470716612797E-003
  0.13245000000000001          1.1072209057168287E-003
  0.13329999999999997          1.0666167928498024E-003
  0.13414999999999999          1.0206762299437492E-003
  0.13500000000000001          9.6968254914835236E-004
  0.13584999999999997          9.1395779544015815E-004
  0.13669999999999999          8.5385948852054173E-004
  0.13755000000000001          7.8977783461272851E-004
  0.13839999999999997          7.2213208764331524E-004
  0.13924999999999998          6.5136589504145458E-004
  0.14010000000000000          5.7794461547302969E-004
  0.14094999999999996          5.0234955281987465E-004
  0.14179999999999998          4.2507401136618556E-004
  0.14265000000000000          3.4661913902062709E-004
  0.14350000000000002          2.6748888663452716E-004
  0.14434999999999998          1.8818539917367149E-004
  0.14520000000000000          1.0920488170457139E-004
  0.14605000000000001          3.1033648234829746E-005
  0.14689999999999998         -4.5856786627058131E-005
  0.14774999999999999         -1.2101324169353200E-004
  0.14860000000000001         -1.9400475966929823E-004
  0.14944999999999997         -2.6442560540489412E-004
  0.15029999999999999         -3.3189801834790383E-004
  0.15115000000000001         -3.9607571245102305E-004
  0.15199999999999997         -4.5664603011641067E-004
  0.15284999999999999         -5.1333106211653209E-004
  0.15370000000000000         -5.6588949428993990E-004
  0.15454999999999997         -6.1411821834725974E-004
  0.15539999999999998         -6.5785243899902355E-004
  0.15625000000000000         -6.9696611954187210E-004
  0.15709999999999996         -7.3137206569443111E-004
  0.15794999999999998         -7.6102051456857010E-004
  0.15880000000000000         -7.8589956214696272E-004
  0.15965000000000001         -8.0603311787933569E-004
  0.16049999999999998         -8.2147934559873535E-004
  0.16134999999999999         -8.3232910523702106E-004
  0.16220000000000001         -8.3870393572407168E-004
  0.16304999999999997         -8.4075327347763341E-004
  0.16389999999999999         -8.3865284901906019E-004
  0.16475000000000001         -8.3260092265160590E-004
  0.16559999999999997         -8.2281661347573557E-004
  0.16644999999999999         -8.0953656686064352E-004
  0.16730000000000000         -7.9301201690019267E-004
  0.16814999999999997         -7.7350609066251415E-004
  0.16899999999999998         -7.5129084618879118E-004
  0.16985000000000000         -7.2664454743799568E-004
  0.17069999999999996         -6.9984869149891768E-004
  0.17154999999999998         -6.7118577507113133E-004
  0.17240000000000000         -6.4093636339388708E-004
  0.17325000000000002         -6.0937720743846758E-004
  0.17409999999999998         -5.7677865315038123E-004
  0.17494999999999999         -5.4340295117094410E-004
  0.17580000000000001         -5.0950245475546744E-004
  0.17664999999999997         -4.7531788253441724E-004
  0.17749999999999999         -4.4107713161364577E-004
  0.17835000000000001         -4.0699392344484969E-004
  0.17919999999999997         -3.7326715619069746E-004
  0.18004999999999999         -3.4007976915330579E-004
  0.18090000000000001         -3.0759853235255350E-004
  0.18174999999999997         -2.7597339592055827E-004
  0.18259999999999998         -2.4533758455062209E-004
  0.18345000000000000         -2.1580744683277384E-004
  0.18429999999999996         -1.8748266170004653E-004
  0.18514999999999998         -1.6044661121840576E-004
  0.18600000000000000         -1.3476684148036028E-004
  0.18684999999999996         -1.1049567016460727E-004
  0.18769999999999998         -8.7670978941944549E-005
  0.18855000000000000         -6.6316803767299727E-005
  0.18940000000000001         -4.6444279573973995E-005
  0.19024999999999997         -2.8052688002668822E-005
  0.19109999999999999         -1.1130214746314864E-005
  0.19195000000000001          4.3449301135893630E-006
  0.19279999999999997          1.8403463798911758E-005
  0.19364999999999999          3.1084250943243665E-005
  0.19450000000000001          4.2432750297023055E-005
  0.19534999999999997          5.2500667073914975E-005
  0.19619999999999999          6.1344329481152472E-005
  0.19705000000000000          6.9024204037962695E-005
  0.19789999999999996          7.5603838066137850E-005
  0.19874999999999998          8.1148998596707891E-005
  0.19960000000000000          8.5727041713048476E-005
  0.20044999999999996          8.9405959061901864E-005
  0.20129999999999998          9.2253868334028852E-005
  0.20215000000000000          9.4338370583836191E-005
  0.20300000000000001          9.5726058881684872E-005
  0.20384999999999998          9.6481911447515904E-005
  0.20469999999999999          9.6669034883413492E-005
  0.20555000000000001          9.6348112577653573E-005
  0.20639999999999997          9.5577229618409881E-005
  0.20724999999999999          9.4411601784723874E-005
  0.20810000000000001          9.2903294271028892E-005
  0.20894999999999997          9.1101233698830396E-005
  0.20979999999999999          8.9051134109437421E-005
  0.21065000000000000          8.6795280742158441E-005
  0.21149999999999997          8.4372729040937020E-005
  0.21234999999999998          8.1819171160422136E-005
  0.21320000000000000          7.9167180417752240E-005
  0.21404999999999996          7.6446055808539518E-005
  0.21489999999999998          7.3682144411211048E-005
  0.21575000000000000          7.0898822474462259E-005
  0.21659999999999996          6.8116708538609223E-005
  0.21744999999999998          6.5353835527440687E-005
  0.21829999999999999          6.2625777096968891E-005
  0.21915000000000001          5.9945854578932016E-005
  0.21999999999999997          5.7325221188302968E-005
  0.22084999999999999          5.4773158505851360E-005
  0.22170000000000001          5.2297144754946315E-005
  0.22254999999999997          4.9903106501479415E-005
  0.22339999999999999          4.7595517305599108E-005
  0.22425000000000000          4.5377503105162534E-005
  0.22509999999999997          4.3251068758661819E-005
  0.22594999999999998          4.1217174157641137E-005
  0.22680000000000000          3.9275909518217989E-005
  0.22764999999999996          3.7426582991024668E-005
  0.22849999999999998          3.5667831567049157E-005
  0.22935000000000000          3.3997716947408579E-005
  0.23019999999999996          3.2413847825393620E-005
  0.23104999999999998          3.0913534230155082E-005
  0.23190000000000000          2.9493778181524085E-005
  0.23275000000000001          2.8151403469753601E-005
  0.23359999999999997          2.6883124700617718E-005
  0.23444999999999999          2.5685564072393485E-005
  0.23530000000000001          2.4555336818954907E-005
  0.23614999999999997          2.3489066806433864E-005
  0.23699999999999999          2.2483367015638314E-005
  0.23785000000000001          2.1534866352773440E-005
  0.23869999999999997          2.0640253988474111E-005
  0.23954999999999999          1.9796275868305719E-005
  0.24040000000000000          1.8999766801064399E-005
  0.24124999999999996          1.8247671892466845E-005
  0.24209999999999998          1.7537092656139314E-005
  0.24295000000000000          1.6865275151127443E-005
  0.24379999999999996          1.6229656365281520E-005
  0.24464999999999998          1.5627832758161800E-005
  0.24550000000000000          1.5057582258983990E-005
  0.24634999999999996          1.4516784096800280E-005
  0.24719999999999998          1.4003470110098407E-005
  0.24804999999999999          1.3515777081761248E-005
  0.24890000000000001          1.3051907888772504E-005
  0.24974999999999997          1.2610195504204090E-005
  0.25059999999999999          1.2189046303529178E-005
  0.25145000000000001          1.1786973766908105E-005
  0.25229999999999997          1.1402609046265666E-005
  0.25314999999999999          1.1034678781842164E-005
  0.25400000000000000          1.0682015192118424E-005
  0.25484999999999997          1.0343556433896779E-005
  0.25569999999999998          1.0018306723079576E-005
  0.25655000000000000          9.7053600760058207E-006
  0.25739999999999996          9.4038493761489991E-006
  0.25824999999999998          9.1129757369985891E-006
  0.25910000000000000          8.8319831704200928E-006
  0.25994999999999996          8.5601382074452113E-006
  0.26079999999999998          8.2967573438678215E-006
  0.26164999999999999          8.0412033085294692E-006
  0.26249999999999996          7.7928840524331342E-006
  0.26334999999999997          7.5512562875486084E-006
  0.26419999999999999          7.3158377642722344E-006
  0.26505000000000001          7.0862099466550787E-006
  0.26589999999999997          6.8620220130728845E-006
  0.26674999999999999          6.6430012620209686E-006
  0.26760000000000000          6.4289512439560580E-006
  0.26844999999999997          6.2197381073416984E-006
  0.26929999999999998          6.0153002571641933E-006
  0.27015000000000000          5.8156107711595997E-006
  0.27099999999999996          5.6206972187748294E-006
  0.27184999999999998          5.4306098241232384E-006
  0.27270000000000000          5.2454168997247301E-006
  0.27354999999999996          5.0652381108330440E-006
  0.27439999999999998          4.8902282834358090E-006
  0.27524999999999999          4.7205834435817087E-006
  0.27609999999999996          4.5565626803668337E-006
  0.27694999999999997          4.3984692193999484E-006
  0.27779999999999999          4.2466540946319120E-006
  0.27865000000000001          4.1014817576083800E-006
  0.27949999999999997          3.9633134502352373E-006
  0.28034999999999999          3.8324699814642702E-006
  0.28120000000000001          3.7092152703789267E-006
  0.28204999999999997          3.5937371047605999E-006
  0.28289999999999998          3.4861462994477068E-006
  0.28375000000000000          3.3864732666570357E-006
  0.28459999999999996          3.2946781555160341E-006
  0.28544999999999998          3.2106767733793640E-006
  0.28630000000000000          3.1343472774688836E-006
  0.28714999999999996          3.0655318628668250E-006
  0.28799999999999998          3.0040427270759772E-006
  0.28885000000000000          2.9496492332521065E-006
  0.28969999999999996          2.9020731745935922E-006
  0.29054999999999997          2.8609601063353490E-006
  0.29139999999999999          2.8258833212057696E-006
  0.29224999999999995          2.7963336685751074E-006
  0.29309999999999997          2.7717186386315284E-006
  0.29394999999999999          2.7513764592229144E-006
  0.29480000000000001          2.7346015458060747E-006
  0.29564999999999997          2.7206609891508992E-006
  0.29649999999999999          2.7088253526068414E-006
  0.29735000000000000          2.6983872997639531E-006
  0.29819999999999997          2.6886755688257094E-006
  0.29904999999999998          2.6790752837292400E-006
  0.29990000000000000          2.6690240290459405E-006
  0.30074999999999996          2.6579901039777090E-006
  0.30159999999999998          2.6454921328521915E-006
  0.30245000000000000          2.6310804473995510E-006
  0.30329999999999996          2.6143243947536025E-006
  0.30414999999999998          2.5948324441993429E-006
  0.30499999999999999          2.5722608169379815E-006
  0.30584999999999996          2.5463272149751728E-006
  0.30669999999999997          2.5168294978504413E-006
  0.30754999999999999          2.4836510583599646E-006
  0.30840000000000001          2.4467715522359268E-006
  0.30924999999999997          2.4062563897019424E-006
  0.31009999999999999          2.3622338031892720E-006
  0.31095000000000000          2.3148719639190448E-006
  0.31179999999999997          2.2643476936300478E-006
  0.31264999999999998          2.2108376928632727E-006
  0.31350000000000000          2.1545054767705800E-006
  0.31434999999999996          2.0954965762943702E-006
  0.31519999999999998          2.0339692083839817E-006
  0.31605000000000000          1.9701009085949630E-006
  0.31689999999999996          1.9041217444216896E-006
  0.31774999999999998          1.8363068939556616E-006
  0.31859999999999999          1.7669949384308266E-006
  0.31944999999999996          1.6965629328342163E-006
  0.32029999999999997          1.6254086162620034E-006
  0.32114999999999999          1.5539206252169258E-006
  0.32199999999999995          1.4824648721492199E-006
  0.32284999999999997          1.4113678023108150E-006
  0.32369999999999999          1.3409264905026773E-006
  0.32455000000000001          1.2714187331559124E-006
  0.32539999999999997          1.2031179323651252E-006
  0.32624999999999998          1.1363269696452527E-006
  0.32710000000000000          1.0713767149891096E-006
  0.32794999999999996          1.0086400294551945E-006
  0.32879999999999998          9.4851598216433123E-007
  0.32965000000000000          8.9141815149061793E-007
  0.33049999999999996          8.3774831706063642E-007
  0.33134999999999998          7.8788267274879178E-007
  0.33220000000000000          7.4215161097052959E-007
  0.33304999999999996          7.0084902689275154E-007
  0.33389999999999997          6.6422720207237910E-007
  0.33474999999999999          6.3250885671720908E-007
  0.33559999999999995          6.0589610128216926E-007
  0.33644999999999997          5.8457278247047813E-007
  0.33729999999999999          5.6870124217486551E-007
  0.33815000000000001          5.5840112076504043E-007
  0.33899999999999997          5.5373784488175065E-007
  0.33984999999999999          5.5470399648259284E-007
  0.34070000000000000          5.6119921236308673E-007
  0.34154999999999996          5.7302841051167375E-007
  0.34239999999999998          5.8990318267255111E-007