 -0.12000000000000000          0.0000000000000000
 -0.11914999999999999          0.0000000000000000
 -0.11830000000000000          0.0000000000000000
 -0.11745000000000000          0.0000000000000000
 -0.11660000000000000          0.0000000000000000
 -0.11574999999999999         -2.7328355754203884E-015
 -0.11490000000000000         -4.1239678064755993E-015
 -0.11405000000000000          8.7433212295116136E-014
 -0.11320000000000000          6.4686785997881471E-013
 -0.11234999999999999          2.4737702284681841E-012
 -0.11150000000000000          6.3168687566987614E-012
 -0.11065000000000000          1.1046410212742463E-011
 -0.10979999999999999          1.0463755977622632E-011
 -0.10894999999999999         -9.2969614958236201E-012
 -0.10810000000000000         -6.7424338511989975E-011
 -0.10725000000000000         -1.7618260077516303E-010
 -0.10639999999999999         -3.1757234237706086E-010
 -0.10554999999999999         -4.1659281924170451E-010
 -0.10470000000000000         -3.2954568897881425E-010
 -0.10385000000000000          1.2886310256748209E-010
 -0.10299999999999999          1.1040151357104419E-009
 -0.10214999999999999          2.5744908940173312E-009
 -0.10130000000000000          4.2229749863909494E-009
 -0.10045000000000000          5.3749117405750381E-009
  -9.9599999999999994E-002     5.0745159527142488E-009
  -9.8750000000000004E-002     2.3296767195467932E-009
  -9.7900000000000001E-002    -3.5100002250897228E-009
  -9.7049999999999997E-002    -1.2346492186692790E-008
  -9.6199999999999994E-002    -2.3037781814866485E-008
  -9.5349999999999990E-002    -3.3333889923290100E-008
  -9.4500000000000001E-002    -4.0098338490723689E-008
  -9.3649999999999997E-002    -3.9790754531700107E-008
  -9.2799999999999994E-002    -2.9134879812964713E-008
  -9.1950000000000004E-002    -5.8871960491483386E-009
  -9.1100000000000000E-002     3.0375948653754061E-008
  -9.0249999999999997E-002     7.7570278665128309E-008
  -8.9399999999999993E-002     1.3072976963005266E-007
  -8.8549999999999990E-002     1.8225759565708078E-007
  -8.7700000000000000E-002     2.2305599965258119E-007
  -8.6849999999999997E-002     2.4442305181350708E-007
  -8.5999999999999993E-002     2.3992752853449254E-007
  -8.5150000000000003E-002     2.0577945237952516E-007
  -8.4300000000000000E-002     1.3811499554233264E-007
  -8.3449999999999996E-002     2.6759654713058538E-008
  -8.2600000000000007E-002    -1.5232531190482180E-007
  -8.1749999999999989E-002    -4.4028501089241098E-007
  -8.0900000000000000E-002    -8.8631479207359453E-007
  -8.0049999999999996E-002    -1.5195681752348360E-006
  -7.9199999999999993E-002    -2.3021647111371839E-006
  -7.8350000000000003E-002    -3.0757484834197254E-006
  -7.7499999999999999E-002    -3.5280983609161552E-006
  -7.6649999999999996E-002    -3.2148776494368586E-006
  -7.5800000000000006E-002    -1.6661491687816726E-006
  -7.4949999999999989E-002     1.4180318914065758E-006
  -7.4099999999999999E-002     5.9221399869284739E-006
  -7.3249999999999996E-002     1.1108123978045807E-005
  -7.2399999999999992E-002     1.5567711739967498E-005
  -7.1550000000000002E-002     1.7445658919037903E-005
  -7.0699999999999999E-002     1.4977107093427892E-005
  -6.9849999999999995E-002     7.2583992574184681E-006
  -6.9000000000000006E-002    -4.9763580680949747E-006
  -6.8149999999999988E-002    -1.8912858615067979E-005
  -6.7299999999999999E-002    -2.9898122531016330E-005
  -6.6449999999999995E-002    -3.2574325556062465E-005
  -6.5599999999999992E-002    -2.2818917715645912E-005
  -6.4750000000000002E-002    -2.4845950697118479E-008
  -6.3899999999999998E-002     3.1081881959278975E-005
  -6.3049999999999995E-002     6.0022972684714012E-005
  -6.2199999999999998E-002     7.2280180478344921E-005
  -6.1350000000000002E-002     5.3299937975252935E-005
  -6.0499999999999998E-002    -5.8883001894900820E-006
  -5.9650000000000002E-002    -1.0297501190183411E-004
  -5.8799999999999998E-002    -2.2067388860627844E-004
  -5.7950000000000002E-002    -3.2702660936829525E-004
  -5.7099999999999998E-002    -3.8086320112166517E-004
  -5.6249999999999994E-002    -3.4206755403503935E-004
  -5.5400000000000005E-002    -1.8451573427913088E-004
  -5.4550000000000001E-002     9.1893745992716394E-005
  -5.3699999999999998E-002     4.5422755403404431E-004
  -5.2849999999999994E-002     8.3783133851127742E-004
  -5.2000000000000005E-002     1.1571730012421818E-003
  -5.1150000000000001E-002     1.3245113757625587E-003
  -5.0299999999999997E-002     1.2718826733718177E-003
  -4.9449999999999994E-002     9.7020723159805394E-004
  -4.8600000000000004E-002     4.3953921849840857E-004
  -4.7750000000000001E-002    -2.5324531308627867E-004
  -4.6899999999999997E-002    -1.0091758379635481E-003
  -4.6049999999999994E-002    -1.7200562535772564E-003
  -4.5200000000000004E-002    -2.2922499409734334E-003
  -4.4350000000000001E-002    -2.6635876630339765E-003
  -4.3499999999999997E-002    -2.8079634189568056E-003
  -4.2649999999999993E-002    -2.7267767109913589E-003
  -4.1800000000000004E-002    -2.4316737156559525E-003
  -4.0950000000000000E-002    -1.9269617379173384E-003
  -4.0099999999999997E-002    -1.2008294825185633E-003
  -3.9249999999999993E-002    -2.3141419271821280E-004
  -3.8400000000000004E-002     9.9243568093272715E-004
  -3.7550000000000000E-002     2.4429457374750304E-003
  -3.6699999999999997E-002     4.0300401884502549E-003
  -3.5850000000000007E-002     5.5956669608853123E-003
  -3.5000000000000003E-002     6.9335742058649411E-003
  -3.4150000000000000E-002     7.8328442088589183E-003
  -3.3299999999999996E-002     8.1327210332398682E-003
  -3.2450000000000007E-002     7.7686269829281510E-003
  -3.1600000000000003E-002     6.7885988355055344E-003
  -3.0750000000000000E-002     5.3272862899405964E-003
  -2.9899999999999996E-002     3.5397947196900235E-003
  -2.9050000000000006E-002     1.5152229527455327E-003
  -2.8200000000000003E-002    -7.9692662970289149E-004
  -2.7349999999999999E-002    -3.6111199817504217E-003
  -2.6499999999999996E-002    -7.2554136115207408E-003
  -2.5650000000000006E-002    -1.2043534821785632E-002
  -2.4800000000000003E-002    -1.8095779172630395E-002
  -2.3949999999999999E-002    -2.5160210682447375E-002
  -2.3099999999999996E-002    -3.2497490191406374E-002
  -2.2250000000000006E-002    -3.8884080247155201E-002
  -2.1400000000000002E-002    -4.2759916799582104E-002
  -2.0549999999999999E-002    -4.2504632338767667E-002
  -1.9699999999999995E-002    -3.6784007568343970E-002
  -1.8850000000000006E-002    -2.4879964403836920E-002
  -1.8000000000000002E-002    -6.9143610987391184E-003
  -1.7149999999999999E-002     1.6096955174511037E-002
  -1.6299999999999995E-002     4.2375043345860432E-002
  -1.5450000000000005E-002     6.9652430448246455E-002
  -1.4600000000000002E-002     9.5505108205591938E-002
  -1.3749999999999998E-002    0.11763957813279691
  -1.2899999999999995E-002    0.13405155179062242
  -1.2050000000000005E-002    0.14302562487610049
  -1.1200000000000002E-002    0.14301191383380041
  -1.0349999999999998E-002    0.13247593058216836
  -9.5000000000000084E-003    0.10984447467478112
  -8.6500000000000049E-003     7.3652599549003953E-002
  -7.8000000000000014E-003     2.2933515423273976E-002
  -6.9499999999999978E-003    -4.2199255711294389E-002
  -6.1000000000000082E-003   -0.11991814769447376
  -5.2500000000000047E-003   -0.20619517682502969
  -4.4000000000000011E-003   -0.29465870006703920
  -3.5499999999999976E-003   -0.37692778305909119
  -2.7000000000000079E-003   -0.44344186439421229
  -1.8500000000000044E-003   -0.48466850707801645
  -1.0000000000000009E-003   -0.49246096302068254
  -1.4999999999999736E-004   -0.46128368023562261
   6.9999999999999230E-004   -0.38904548803849859
   1.5499999999999958E-003   -0.27738745119860986
   2.3999999999999994E-003   -0.13139761580015247
   3.2500000000000029E-003     4.1102621245257279E-002
   4.0999999999999925E-003    0.23048447389371429
   4.9499999999999961E-003    0.42617178529884930
   5.7999999999999996E-003    0.61724396304101037
   6.6499999999999893E-003    0.79268921637167933
   7.5000000000000067E-003    0.94136070531349769
   8.3499999999999963E-003     1.0517997925258837
   9.1999999999999860E-003     1.1121732937305422
   1.0050000000000003E-002     1.1104494825647842
   1.0899999999999993E-002     1.0349329429846261
   1.1750000000000010E-002    0.87509405834069753
   1.2600000000000000E-002    0.62242377528022019
   1.3449999999999990E-002    0.27114532450768336
   1.4300000000000007E-002   -0.18154653251578023
   1.5149999999999997E-002   -0.73583278937444652
   1.5999999999999986E-002    -1.3901242764928394
   1.6850000000000004E-002    -2.1423440575340220
   1.7699999999999994E-002    -2.9912933412203531
   1.8549999999999983E-002    -3.9377645939164432
   1.9400000000000001E-002    -4.9853929502634955
   2.0249999999999990E-002    -6.1409097720532015
   2.1100000000000008E-002    -7.4141565933318674
   2.1949999999999997E-002    -8.8182139147754270
   2.2799999999999987E-002    -10.369739463371765
   2.3650000000000004E-002    -12.089923725793945
   2.4499999999999994E-002    -14.006263903606357
   2.5349999999999984E-002    -16.154882501470343
   2.6200000000000001E-002    -18.583216218712256
   2.7049999999999991E-002    -21.352512578487687
   2.7900000000000008E-002    -24.539970435227193
   2.8749999999999998E-002    -28.240012290649400
   2.9599999999999987E-002    -32.564639328877959
   3.0450000000000005E-002    -37.643492667840626
   3.1299999999999994E-002    -43.622890613629977
   3.2149999999999984E-002    -50.665572433406737
   3.3000000000000002E-002    -58.950786635306727
   3.3849999999999991E-002    -68.674646883231517
   3.4700000000000009E-002    -80.051378883849154
   3.5549999999999998E-002    -93.315643789804724
   3.6399999999999988E-002    -108.72448987233984
   3.7250000000000005E-002    -126.55906807860423
   3.8099999999999995E-002    -147.12743152215685
   3.8949999999999985E-002    -170.76755662903736
   3.9800000000000002E-002    -197.84788825426074
   4.0649999999999992E-002    -228.77287428881604
   4.1500000000000009E-002    -263.98586985713052
   4.2349999999999999E-002    -303.97673980477799
   4.3199999999999988E-002    -349.28730345462117
   4.4050000000000006E-002    -400.51812450320784
   4.4899999999999995E-002    -458.33626526379027
   4.5749999999999985E-002    -523.48231276649062
   4.6600000000000003E-002    -596.77290970291597
   4.7449999999999992E-002    -679.10648435275220
   4.8299999999999982E-002    -771.45770724659963
   4.9149999999999999E-002    -874.87924611609708
   4.9999999999999989E-002    -990.49179858164450
   5.0850000000000006E-002    -1119.4852868162684
   5.1699999999999996E-002    -1263.1122633643747
   5.2549999999999986E-002    -1422.6737530735422
   5.3400000000000003E-002    -1599.5231028970752
   5.4249999999999993E-002    -1795.0536535321835
   5.5099999999999982E-002    -2010.6988175112647
   5.5950000000000000E-002    -2247.9192260413693
   5.6799999999999989E-002    -2508.1980820300878
   5.7650000000000007E-002    -2793.0304349944954
   5.8499999999999996E-002    -3103.9063244917529
   5.9349999999999986E-002    -3442.3103704368555
   6.0200000000000004E-002    -3809.6786568287525
   6.1049999999999993E-002    -4207.3938977901616
   6.1899999999999983E-002    -4636.7716482380129
   6.2750000000000000E-002    -5098.9980193308538
   6.3599999999999990E-002    -5595.1442515212475
   6.4450000000000007E-002    -6126.0844092820980
   6.5299999999999997E-002    -6692.4816781227473
   6.6149999999999987E-002    -7294.7514415262522
   6.7000000000000004E-002    -7933.0038125063083
   6.7849999999999994E-002    -8606.9990688426969
   6.8699999999999983E-002    -9316.0856732112061
   6.9550000000000001E-002    -10059.178348956746
   7.0399999999999990E-002    -10834.667809570008
   7.1249999999999980E-002    -11640.395925336701
   7.2099999999999997E-002    -12473.581881893799
   7.2949999999999987E-002    -13330.804232883491
   7.3800000000000004E-002    -14207.922066551291
   7.4649999999999994E-002    -15100.074697854243
   7.5499999999999984E-002    -16001.544399756116
   7.6350000000000001E-002    -16905.945023650645
   7.7199999999999991E-002    -17805.928707686940
   7.8049999999999981E-002    -18693.344530312435
   7.8899999999999998E-002    -19559.097924598515
   7.9749999999999988E-002    -20393.396424103448
   8.0600000000000005E-002    -21185.461463635038
   8.1449999999999995E-002    -21923.786399388984
   8.2299999999999984E-002    -22595.953995439118
   8.3150000000000002E-002    -23188.918898721487
   8.3999999999999991E-002    -23688.925252255955
   8.4849999999999981E-002    -24081.504933818131
   8.5699999999999998E-002    -24351.911486906167
   8.6549999999999988E-002    -24484.786027357062
   8.7400000000000005E-002    -24464.499742208147
   8.8249999999999995E-002    -24275.390752722982
   8.9099999999999985E-002    -23901.710143893884
   8.9950000000000002E-002    -23328.056376884771
   9.0799999999999992E-002    -22539.422564536744
   9.1649999999999981E-002    -21521.422045899126
   9.2499999999999999E-002    -20260.617224108959
   9.3349999999999989E-002    -18744.585245901148
   9.4200000000000006E-002    -16962.194813338570
   9.5049999999999996E-002    -14903.980961320249
   9.5899999999999985E-002    -12562.430864072099
   9.6750000000000003E-002    -9932.0205372991695
   9.7599999999999992E-002    -7009.6612294217048
   9.8449999999999982E-002    -3794.6672250958777
   9.9299999999999999E-002    -289.46146071092244
  0.10014999999999999          3501.0251966101023
  0.10099999999999998          7567.8715182589758
  0.10185000000000000          11899.696119147522
  0.10269999999999999          16480.884864157852
  0.10355000000000000          21292.759568236132
  0.10439999999999999          26312.916987820809
  0.10524999999999998          31514.930881758257
  0.10610000000000000          36869.402402360698
  0.10694999999999999          42342.967559225246
  0.10779999999999998          47898.656732724157
  0.10865000000000000          53496.835754968306
  0.10949999999999999          59094.732123108006
  0.11035000000000000          64646.771293441700
  0.11119999999999999          70104.975094938840
  0.11204999999999998          75419.616938517211
  0.11290000000000000          80539.536486367651
  0.11374999999999999          85412.165503364144
  0.11459999999999998          89984.651960403513
  0.11545000000000000          94203.965076692708
  0.11629999999999999          98017.731505117670
  0.11715000000000000          101374.74422419892
  0.11799999999999999          104225.43968905382
  0.11884999999999998          106523.13452065665
  0.11970000000000000          108223.91826981808
  0.12054999999999999          109287.43887210399
  0.12139999999999998          109677.96807781576
  0.12225000000000000          109364.70894144011
  0.12309999999999999          108322.00115729662
  0.12395000000000000          106530.05530846791
  0.12479999999999999          103975.76283517557
  0.12564999999999998          100652.50283594438
  0.12650000000000000          96560.575258432669
  0.12734999999999999          91707.837138154646
  0.12819999999999998          86109.267001723478
  0.12905000000000000          79787.419707894427
  0.12989999999999999          72772.017289109775
  0.13074999999999998          65100.543979516558
  0.13159999999999999          56817.219566718195
  0.13245000000000001          47973.158357453736
  0.13329999999999997          38625.889629378202
  0.13414999999999999          28838.941342290447
  0.13500000000000001          18681.285235588708
  0.13584999999999997          8226.2162474619254
  0.13669999999999999         -2448.8306465768983
  0.13755000000000001         -13262.997091407273
  0.13839999999999997         -24133.082678149258
  0.13924999999999998         -34974.493774149385
  0.14010000000000000         -45701.683091311497
  0.14094999999999996         -56229.308004046361
  0.14179999999999998         -66473.839758181275
  0.14265000000000000         -76352.423576605564
  0.14350000000000002         -85786.177968615186
  0.14434999999999998         -94699.168271074363
  0.14520000000000000         -103021.66183294049
  0.14605000000000001         -110687.47269392053
  0.14689999999999998         -117637.78223356162
  0.14774999999999999         -123819.26963873539
  0.14860000000000001         -129187.10736078431
  0.14944999999999997         -133703.44753977188
  0.15029999999999999         -137338.12699785651
  0.15115000000000001         -140070.10573701750
  0.15199999999999997         -141885.62686006963
  0.15284999999999999         -142780.81398128913
  0.15370000000000000         -142759.22812140637
  0.15454999999999997         -141833.41664658167
  0.15539999999999998         -140023.45464755339
  0.15625000000000000         -137357.59536249776
  0.15709999999999996         -133871.02170583294
  0.15794999999999998         -129606.17967689586
  0.15880000000000000         -124611.83663965919
  0.15965000000000001         -118941.50159781749
  0.16049999999999998         -112654.29246696955
  0.16134999999999999         -105813.99552208831
  0.16220000000000001         -98486.664549585461
  0.16304999999999997         -90741.560141301248
  0.16389999999999999         -82650.094032266876
  0.16475000000000001         -74284.792050679884
  0.16559999999999997         -65717.943118149415
  0.16644999999999999         -57022.094610634071
  0.16730000000000000         -48267.489581012480
  0.16814999999999997         -39523.614395361794
  0.16899999999999998         -30856.654446596160
  0.16985000000000000         -22330.049614102663
  0.17069999999999996         -14002.914127090235
  0.17154999999999998         -5930.8463921996572
  0.17240000000000000          1835.4379254677563
  0.17325000000000002          9249.9955579729085
  0.17409999999999998          16272.093181291551
  0.17494999999999999          22866.369883705585
  0.17580000000000001          29002.884102560769
  0.17664999999999997          34657.054598289105
  0.17749999999999999          39810.155275149416
  0.17835000000000001          44448.612717073062
  0.17919999999999997          48564.567427955371
  0.18004999999999999          52155.012284783719
  0.18090000000000001          55221.686637543484
  0.18174999999999997          57771.099548103790
  0.18259999999999998          59813.882521340653
  0.18345000000000000          61364.708221746398
  0.18429999999999996          62441.629834612679
  0.18514999999999998          63065.735636358389
  0.18600000000000000          63261.092701890331
  0.18684999999999996          63053.722827827929
  0.18769999999999998          62471.755380472336
  0.18855000000000000          61544.876828874738
  0.18940000000000001          60303.640112734254
  0.19024999999999997          58779.411597916122
  0.19109999999999999          57003.809197522147
  0.19195000000000001          55008.340948491605
  0.19279999999999997          52824.369561628089
  0.19364999999999999          50482.442313069310
  0.19450000000000001          48012.125164043886
  0.19534999999999997          45441.900833865890
  0.19619999999999999          42798.799837003055
  0.19705000000000000          40108.655972886918
  0.19789999999999996          37395.241881664129
  0.19874999999999998          34680.824009235723
  0.19960000000000000          31985.790147617139
  0.20044999999999996          29328.707868784204
  0.20129999999999998          26726.220260704915
  0.20215000000000000          24192.993108570874
  0.20300000000000001          21741.722355868547
  0.20384999999999998          19383.258332351448
  0.20469999999999999          17126.496059511173
  0.20555000000000001          14978.680608443534
  0.20639999999999997          12945.354443474938
  0.20724999999999999          11030.577302426029
  0.20810000000000001          9236.8281243719703
  0.20894999999999997          7565.5405005844814
  0.20979999999999999          6016.8479273725397
  0.21065000000000000          4589.8149981485822
  0.21149999999999997          3282.4691949579519
  0.21234999999999998          2092.0816203418299
  0.21320000000000000          1015.1265785509488
  0.21404999999999996          47.342254412528831
  0.21489999999999998         -815.98084352143894
  0.21575000000000000         -1579.8072984844957
  0.21659999999999996         -2249.7133982973032
  0.21744999999999998         -2831.1854017439578
  0.21829999999999999         -3330.0331967187381
  0.21915000000000001         -3752.1059890212350
  0.21999999999999997         -4103.1508378248964
  0.22084999999999999         -4388.9893971435677
  0.22170000000000001         -4615.3169668384198
  0.22254999999999997         -4787.7201076101610
  0.22339999999999999         -4911.5339884830028
  0.22425000000000000         -4991.9288013780288
  0.22509999999999997         -5033.7701433124830
  0.22594999999999998         -5041.6934844166508
  0.22680000000000000         -5020.0388871341574
  0.22764999999999996         -4972.8176727473601
  0.22849999999999998         -4903.8074767317357
  0.22935000000000000         -4816.4091047620614
  0.23019999999999996         -4713.8488195015643
  0.23104999999999998         -4598.9409493420326
  0.23190000000000000         -4474.2610205164237
  0.23275000000000001         -4342.0037871519235
  0.23359999999999997         -4204.1617601857452
  0.23444999999999999         -4062.4196224462880
  0.23530000000000001         -3918.2364170026458
  0.23614999999999997         -3772.8615805906807
  0.23699999999999999         -3627.3860823840846
  0.23785000000000001         -3482.7478954984540
  0.23869999999999997         -3339.7067941925197
  0.23954999999999999         -3198.8866190461254
  0.24040000000000000         -3060.7838806320115
  0.24124999999999996         -2925.7324258486187
  0.24209999999999998         -2793.9787302851587
  0.24295000000000000         -2665.6898543430325
  0.24379999999999996         -2540.9756748348523
  0.24464999999999998         -2419.9255344894623
  0.24550000000000000         -2302.6400369139087
  0.24634999999999996         -2189.1991307744825
  0.24719999999999998         -2079.7237607978909
  0.24804999999999999         -1974.3277101944193
  0.24890000000000001         -1873.1126535382573
  0.24974999999999997         -1776.1641782462732
  0.25059999999999999         -1683.5997871158092
  0.25145000000000001         -1595.5012199738312
  0.25229999999999997         -1512.0277904093086
  0.25314999999999999         -1433.3759727535482
  0.25400000000000000         -1359.8098602139682
  0.25484999999999997         -1291.6552685365402
  0.25569999999999998         -1229.3008922658314
  0.25655000000000000         -1173.1760932769612
  0.25739999999999996         -1123.7301295097986
  0.25824999999999998         -1081.4309127160213
  0.25910000000000000         -1046.7540033044129
  0.25994999999999996         -1020.1451748845683
  0.26079999999999998         -1002.0590633209681
  0.26164999999999999         -992.94237863067599
  0.26249999999999996         -993.22484104582031
  0.26334999999999997         -1003.3107827645885
  0.26419999999999999         -1023.5707861250455
  0.26505000000000001         -1054.3648546783484
  0.26589999999999997         -1096.0005886730125
  0.26674999999999999         -1148.7617595038714
  0.26760000000000000         -1212.9130729199292
  0.26844999999999997         -1288.6693571027292
  0.26929999999999998         -1376.2601924449643
  0.27015000000000000         -1475.8607531505850
  0.27099999999999996         -1587.6527527331812
  0.27184999999999998         -1711.7413334097712
  0.27270000000000000         -1848.2129066872692
  0.27354999999999996         -1997.1008075128884
  0.27439999999999998         -2158.3966869800720
  0.27524999999999999         -2332.0297903132141
  0.27609999999999996         -2517.9022039720326
  0.27694999999999997         -2715.8479440329106
  0.27779999999999999         -2925.6585102599938
  0.27865000000000001         -3146.9937667021818
  0.27949999999999997         -3379.4216964664279
  0.28034999999999999         -3622.3386610110524
  0.28120000000000001         -3874.9921759435301
  0.28204999999999997         -4136.3946573185767
  0.28289999999999998         -4405.3953854449419
  0.28375000000000000         -4680.6190317701876
  0.28459999999999996         -4960.5129371476642
  0.28544999999999998         -5243.3223242090462
  0.28630000000000000         -5527.1059713189379
  0.28714999999999996         -5809.6866763815051
  0.28799999999999998         -6088.6826444665112
  0.28885000000000000         -6361.4301066539565
  0.28969999999999996         -6624.9733008607909
  0.29054999999999997         -6876.0706049117080
  0.29139999999999999         -7111.1491729790814
  0.29224999999999995         -7326.3772062918242
  0.29309999999999997         -7517.6418624194393
  0.29394999999999999         -7680.5855425241989
  0.29480000000000001         -7810.6748110333301
  0.29564999999999997         -7903.1764322611225
  0.29649999999999999         -7953.2714316723459
  0.29735000000000000         -7956.0022354642242
  0.29819999999999997         -7906.3593071141213
  0.29904999999999998         -7799.3366754791341
  0.29990000000000000         -7629.9581867172765
  0.30074999999999996         -7393.3449925437517
  0.30159999999999998         -7084.7627482737516
  0.30245000000000000         -6699.8245494236971
  0.30329999999999996         -6234.4550796762005
  0.30414999999999998         -5685.0264234273718
  0.30499999999999999         -5048.5227848396999
  0.30584999999999996         -4322.4495275066811
  0.30669999999999997         -3505.0716600441551
  0.30754999999999999         -2595.3287322995147
  0.30840000000000001         -1593.0907110093199
  0.30924999999999997         -498.91480995456550
  0.31009999999999999          685.46859782360514
  0.31095000000000000          1957.5865226586589
  0.31179999999999997          3313.7794285082200
  0.31264999999999998          4749.4325681774553
  0.31350000000000000          6258.7421301563063
  0.31434999999999996          7834.8405360468832
  0.31519999999999998          9469.5802522923805
  0.31605000000000000          11153.685258588106
  0.31689999999999996          12876.875006486491
  0.31774999999999998          14627.741269733389
  0.31859999999999999          16393.978720476116
  0.31944999999999996          18162.251100288177
  0.32029999999999997          19918.487969764930
  0.32114999999999999          21647.823763725140
  0.32199999999999995          23334.950974817541
  0.32284999999999997          24963.900281762581
  0.32369999999999999          26518.326137663869
  0.32455000000000001          27981.695396977233
  0.32539999999999997          29337.468032063971
  0.32624999999999998          30569.155606434360
  0.32710000000000000          31660.707080260152
  0.32794999999999996          32596.447572843808
  0.32879999999999998          33361.698215151177
  0.32965000000000000          33942.398544364703
  0.33049999999999996          34325.879938277016
  0.33134999999999998          34500.522417052402
  0.33220000000000000          34456.258835652916
  0.33304999999999996          34184.562337243253
  0.33389999999999997          33678.682105581538
  0.33474999999999999          32933.675877539106
  0.33559999999999995          31946.752164400979
  0.33644999999999997          30717.086494907948
  0.33729999999999999          29246.297250495205
  0.33815000000000001          27538.265739368795
  0.33899999999999997          25599.209913344668
  0.33984999999999999          23437.611577476953
  0.34070000000000000          21064.387634665844
  0.34154999999999996          18492.658291278160
  0.34239999999999998          15737.651687933416
  0.34325000000000000          12816.760993352093
  0.34409999999999996          9749.1301609652783
  0.34494999999999998          6555.8515749566250
  0.34580000000000000          3259.5120253524110
  0.34664999999999996         -115.88473361713363
  0.34749999999999998         -3545.1934986483989
  0.34834999999999999         -7002.2578815224679
  0.34919999999999995         -10460.268252606658
  0.35004999999999997         -13892.025120210126
  0.35089999999999999         -17270.267323911303
  0.35174999999999995         -20567.746753413645
  0.35259999999999997         -23757.862035581376
  0.35344999999999999         -26814.889411680801
  0.35430000000000000         -29714.082807546063
  0.35514999999999997         -32432.027466470037
  0.35599999999999998         -34947.032783312199
  0.35685000000000000         -37239.202690293932
  0.35769999999999996         -39290.655769337427
  0.35854999999999998         -41085.829847598550
  0.35940000000000000         -42611.402968686278
  0.36024999999999996         -43856.501872676934
  0.36109999999999998         -44813.142527733646
  0.36194999999999999         -45475.737595696795
  0.36279999999999996         -45841.819638935143
  0.36364999999999997         -45911.561699770318
  0.36449999999999999         -45687.858790894352
  0.36534999999999995         -45176.630652965599
  0.36619999999999997         -44385.911627171241
  0.36704999999999999         -43326.543190290809
  0.36790000000000000         -42011.394736913055
  0.36874999999999997         -40455.596508448383
  0.36959999999999998         -38676.016013302156
  0.37045000000000000         -36691.326226394296
  0.37129999999999996         -34521.430380471218
  0.37214999999999998         -32187.682321799068
  0.37300000000000000         -29712.564724344211
  0.37384999999999996         -27119.032363950730
  0.37469999999999998         -24430.655418657123
  0.37554999999999999         -21671.238282585971
  0.37639999999999996         -18864.361632516251
  0.37724999999999997         -16033.265454504688
  0.37809999999999999         -13200.546096415645