 -0.12000000000000000          0.0000000000000000
 -0.11914999999999999          0.0000000000000000
 -0.11830000000000000          0.0000000000000000
 -0.11745000000000000         -4.4815974710076482E-018
 -0.11660000000000000         -2.2720537372867791E-017
 -0.11574999999999999         -5.6074399665743994E-017
 -0.11490000000000000         -7.4856710486927757E-017
 -0.11405000000000000         -1.4434187866266201E-018
 -0.11320000000000000          2.8078620849982397E-016
 -0.11234999999999999          8.8735522800374149E-016
 -0.11150000000000000          1.8792610778868088E-015
 -0.11065000000000000          3.2279269484021008E-015
 -0.10979999999999999          4.8214836242464798E-015
 -0.10894999999999999          6.5080548296845957E-015
 -0.10810000000000000          8.1473563705268232E-015
 -0.10725000000000000          9.6424273363519779E-015
 -0.10639999999999999          1.0949579196478269E-014
 -0.10554999999999999          1.2088313680498877E-014
 -0.10470000000000000          1.3155120821847798E-014
 -0.10385000000000000          1.4274760572270495E-014
 -0.10299999999999999          1.5349350864655881E-014
 -0.10214999999999999          1.5489067025960052E-014
 -0.10130000000000000          1.2214768438041380E-014
 -0.10045000000000000          8.8997762774676314E-016
  -9.9599999999999994E-002    -2.4826265126681031E-014
  -9.8750000000000004E-002    -7.0735326694503402E-014
  -9.7900000000000001E-002    -1.3795151796828431E-013
  -9.7049999999999997E-002    -2.1803007264099471E-013
  -9.6199999999999994E-002    -2.8999796273665091E-013
  -9.5349999999999990E-002    -3.2262421758259492E-013
  -9.4500000000000001E-002    -2.8426751799376940E-013
  -9.3649999999999997E-002    -1.5949279493843651E-013
  -9.2799999999999994E-002     3.2980875320875726E-014
  -9.1950000000000004E-002     2.3060565268563510E-013
  -9.1100000000000000E-002     3.3618421770630496E-013
  -9.0249999999999997E-002     2.5195313033005499E-013
  -8.9399999999999993E-002    -6.5772592935757730E-014
  -8.8549999999999990E-002    -5.4930241595869606E-013
  -8.7700000000000000E-002    -9.8856072952461877E-013
  -8.6849999999999997E-002    -1.0567882963245157E-012
  -8.5999999999999993E-002    -4.1008918367117649E-013
  -8.5150000000000003E-002     1.1501588131719236E-012
  -8.4300000000000000E-002     3.4987033191998834E-012
  -8.3449999999999996E-002     6.0676537716278674E-012
  -8.2600000000000007E-002     7.8702536824613707E-012
  -8.1749999999999989E-002     7.7217386461167366E-012
  -8.0900000000000000E-002     4.6481910207767001E-012
  -8.0049999999999996E-002    -1.6099777533600027E-012
  -7.9199999999999993E-002    -1.0169159958726581E-011
  -7.8350000000000003E-002    -1.8850043016795512E-011
  -7.7499999999999999E-002    -2.4464844266122670E-011
  -7.6649999999999996E-002    -2.3591535072396095E-011
  -7.5800000000000006E-002    -1.3712160341401598E-011
  -7.4949999999999989E-002     5.5808934838388494E-012
  -7.4099999999999999E-002     3.1716638052601235E-011
  -7.3249999999999996E-002     5.9009841862349622E-011
  -7.2399999999999992E-002     7.9495510923164702E-011
  -7.1550000000000002E-002     8.4692734419355712E-011
  -7.0699999999999999E-002     6.7934713315621560E-011
  -6.9849999999999995E-002     2.6642526219182334E-011
  -6.9000000000000006E-002    -3.6170207427602448E-011
  -6.8149999999999988E-002    -1.1173671011436937E-010
  -6.7299999999999999E-002    -1.8693866097212701E-010
  -6.6449999999999995E-002    -2.4701139207711012E-010
  -6.5599999999999992E-002    -2.7884571534547432E-010
  -6.4750000000000002E-002    -2.7392743211489448E-010
  -6.3899999999999998E-002    -2.3000837996449398E-010
  -6.3049999999999995E-002    -1.5098369885623177E-010
  -6.2199999999999998E-002    -4.5048878215872944E-011
  -6.1350000000000002E-002     7.8161155273871299E-011
  -6.0499999999999998E-002     2.1032811887010730E-010
  -5.9650000000000002E-002     3.4593442753756040E-010
  -5.8799999999999998E-002     4.8171606092609476E-010
  -5.7950000000000002E-002     6.1407150831943580E-010
  -5.7099999999999998E-002     7.3526987713291255E-010
  -5.6249999999999994E-002     8.2996454084909620E-010
  -5.5400000000000005E-002     8.7370823402073931E-010
  -5.4550000000000001E-002     8.3477611166329780E-010
  -5.3699999999999998E-002     6.7966739021059579E-010
  -5.2849999999999994E-002     3.8148705480568690E-010
  -5.2000000000000005E-002    -7.0675786669483481E-011
  -5.1150000000000001E-002    -6.6381475656459413E-010
  -5.0299999999999997E-002    -1.3568136343500384E-009
  -4.9449999999999994E-002    -2.0814403550087923E-009
  -4.8600000000000004E-002    -2.7485509397986382E-009
  -4.7750000000000001E-002    -3.2581249850975549E-009
  -4.6899999999999997E-002    -3.5106772397442546E-009
  -4.6049999999999994E-002    -3.4172553722052793E-009
  -4.5200000000000004E-002    -2.9056798956094546E-009
  -4.4350000000000001E-002    -1.9219769921650692E-009
  -4.3499999999999997E-002    -4.2718077363300174E-010
  -4.2649999999999993E-002     1.6088178965938170E-009
  -4.1800000000000004E-002     4.2142253754766852E-009
  -4.0950000000000000E-002     7.4211777541563248E-009
  -4.0099999999999997E-002     1.1269195083990416E-008
  -3.9249999999999993E-002     1.5806292720860478E-008
  -3.8400000000000004E-002     2.1089254713820955E-008
  -3.7550000000000000E-002     2.7184528307065851E-008
  -3.6699999999999997E-002     3.4171917272535154E-008
  -3.5850000000000007E-002     4.2151914093880114E-008
  -3.5000000000000003E-002     5.1256400712131715E-008
  -3.4150000000000000E-002     6.1661314626802514E-008
  -3.3299999999999996E-002     7.3599272801401539E-008
  -3.2450000000000007E-002     8.7369999527993981E-008
  -3.1600000000000003E-002     1.0334668944091097E-007
  -3.0750000000000000E-002     1.2197859701713323E-007
  -2.9899999999999996E-002     1.4379029398706342E-007
  -2.9050000000000006E-002     1.6938047573337778E-007
  -2.8200000000000003E-002     1.9942049848846932E-007
  -2.7349999999999999E-002     2.3465786540238935E-007
  -2.6499999999999996E-002     2.7592252951624092E-007
  -2.5650000000000006E-002     3.2413923470067351E-007
  -2.4800000000000003E-002     3.8034428966859457E-007
  -2.3949999999999999E-002     4.4570409465448590E-007
  -2.3099999999999996E-002     5.2153854802681672E-007
  -2.2250000000000006E-002     6.0934364291145695E-007
  -2.1400000000000002E-002     7.1081390640773485E-007
  -2.0549999999999999E-002     8.2786985956287730E-007
  -1.9699999999999995E-002     9.6267800003954557E-007
  -1.8850000000000006E-002     1.1176770131841473E-006
  -1.8000000000000002E-002     1.2955995038507331E-006
  -1.7149999999999999E-002     1.4994955592745406E-006
  -1.6299999999999995E-002     1.7327583840754494E-006
  -1.5450000000000005E-002     1.9991438185119128E-006
  -1.4600000000000002E-002     2.3027986621436947E-006
  -1.3749999999999998E-002     2.6482882584666043E-006
  -1.2899999999999995E-002     3.0406267763611129E-006
  -1.2050000000000005E-002     3.4853106061226962E-006
  -1.1200000000000002E-002     3.9883524806881645E-006
  -1.0349999999999998E-002     4.5563113065169392E-006
  -9.5000000000000084E-003     5.1963346777467036E-006
  -8.6500000000000049E-003     5.9161719432018155E-006
  -7.8000000000000014E-003     6.7242046173733552E-006
  -6.9499999999999978E-003     7.6294655433818166E-006
  -6.1000000000000082E-003     8.6416444407037741E-006
  -5.2500000000000047E-003     9.7711148556507590E-006
  -4.4000000000000011E-003     1.1028946480914826E-005
  -3.5499999999999976E-003     1.2426910084978200E-005
  -2.7000000000000079E-003     1.3977511708262533E-005
  -1.8500000000000044E-003     1.5693972282983495E-005
  -1.0000000000000009E-003     1.7590205858003518E-005
  -1.4999999999999736E-004     1.9680798733502717E-005
   6.9999999999999230E-004     2.1980938993085895E-005
   1.5499999999999958E-003     2.4506334248544457E-005
   2.3999999999999994E-003     2.7273079969746592E-005
   3.2500000000000029E-003     3.0297582264824109E-005
   4.0999999999999925E-003     3.3596380883519936E-005
   4.9499999999999961E-003     3.7186047537168679E-005
   5.7999999999999996E-003     4.1083068573819447E-005
   6.6499999999999893E-003     4.5303665388147877E-005
   7.5000000000000067E-003     4.9863642839754173E-005
   8.3499999999999963E-003     5.4778271992733888E-005
   9.1999999999999860E-003     6.0061923031764276E-005
   1.0050000000000003E-002     6.5728000971328396E-005
   1.0899999999999993E-002     7.1788492680018484E-005
   1.1750000000000010E-002     7.8253709657177421E-005
   1.2600000000000000E-002     8.5132167377102708E-005
   1.3449999999999990E-002     9.2429709635927703E-005
   1.4300000000000007E-002     1.0014962995030898E-004
   1.5149999999999997E-002     1.0829207070761385E-004
   1.5999999999999986E-002     1.1685358379778845E-004
   1.6850000000000004E-002     1.2582695270811205E-004
   1.7699999999999994E-002     1.3520078226832421E-004
   1.8549999999999983E-002     1.4495885093806290E-004
   1.9400000000000001E-002     1.5508019868499211E-004
   2.0249999999999990E-002     1.6553835183963207E-004
   2.1100000000000008E-002     1.7630122943889910E-004
   2.1949999999999997E-002     1.8733065905651811E-004
   2.2799999999999987E-002     1.9858200914523794E-004
   2.3650000000000004E-002     2.1000445362598006E-004
   2.4499999999999994E-002     2.2154000269839879E-004
   2.5349999999999984E-002     2.3312392427193125E-004
   2.6200000000000001E-002     2.4468432645814427E-004
   2.7049999999999991E-002     2.5614226161698312E-004
   2.7900000000000008E-002     2.6741188486946216E-004
   2.8749999999999998E-002     2.7840034690167811E-004
   2.9599999999999987E-002     2.8900856707379243E-004
   3.0450000000000005E-002     2.9913041202128839E-004
   3.1299999999999994E-002     3.0865418350060686E-004
   3.2149999999999984E-002     3.1746314481915209E-004
   3.3000000000000002E-002     3.2543563289323777E-004
   3.3849999999999991E-002     3.3244575964305485E-004
   3.4700000000000009E-002     3.3836491707332729E-004
   3.5549999999999998E-002     3.4306222171362461E-004
   3.6399999999999988E-002     3.4640571770314321E-004
   3.7250000000000005E-002     3.4826316571449694E-004
   3.8099999999999995E-002     3.4850418440643817E-004
   3.8949999999999985E-002     3.4700044620751688E-004
   3.9800000000000002E-002     3.4362775885345359E-004
   4.0649999999999992E-002     3.3826790260283840E-004
   4.1500000000000009E-002     3.3080932041479555E-004
   4.2349999999999999E-002     3.2114976770828069E-004
   4.3199999999999988E-002     3.0919738189672365E-004
   4.4050000000000006E-002     2.9487137782274471E-004
   4.4899999999999995E-002     2.7810567036920807E-004
   4.5749999999999985E-002     2.5884909879549339E-004
   4.6600000000000003E-002     2.3706665013255461E-004
   4.7449999999999992E-002     2.1274181633208343E-004
   4.8299999999999982E-002     1.8587670677472264E-004
   4.9149999999999999E-002     1.5649450547079713E-004
   4.9999999999999989E-002     1.2463960487476349E-004
   5.0850000000000006E-002     9.0378001149688412E-005
   5.1699999999999996E-002     5.3799780420847308E-005
   5.2549999999999986E-002     1.5017031860045806E-005
   5.3400000000000003E-002    -2.5834447868770536E-005
   5.4249999999999993E-002    -6.8594383001033070E-005
   5.5099999999999982E-002    -1.1307984378054647E-004
   5.5950000000000000E-002    -1.5908500959282989E-004
   5.6799999999999989E-002    -2.0638207696243354E-004
   5.7650000000000007E-002    -2.5472338592801187E-004
   5.8499999999999996E-002    -3.0384098312970166E-004
   5.9349999999999986E-002    -3.5345057651638091E-004
   6.0200000000000004E-002    -4.0325149285897155E-004
   6.1049999999999993E-002    -4.5293019981137143E-004
   6.1899999999999983E-002    -5.0216145857144134E-004
   6.2750000000000000E-002    -5.5061169506011201E-004
   6.3599999999999990E-002    -5.9794140529934980E-004
   6.4450000000000007E-002    -6.4380903329142925E-004
   6.5299999999999997E-002    -6.8787271801623270E-004
   6.6149999999999987E-002    -7.2979420521721125E-004
   6.7000000000000004E-002    -7.6924213881698509E-004
   6.7849999999999994E-002    -8.0589581046674943E-004
   6.8699999999999983E-002    -8.3944739888407443E-004
   6.9550000000000001E-002    -8.6960617747394806E-004
   7.0399999999999990E-002    -8.9610090644929219E-004
   7.1249999999999980E-002    -9.1868292199038116E-004
   7.2099999999999997E-002    -9.3712895124214925E-004
   7.2949999999999987E-002    -9.5124376895713392E-004
   7.3800000000000004E-002    -9.6086213793175905E-004
   7.4649999999999994E-002    -9.6585186426113064E-004
   7.5499999999999984E-002    -9.6611445571542906E-004
   7.6350000000000001E-002    -9.6158764726121204E-004
   7.7199999999999991E-002    -9.5224480230394766E-004
   7.8049999999999981E-002    -9.3809893943867242E-004
   7.8899999999999998E-002    -9.1919808507767611E-004
   7.9749999999999988E-002    -8.9562950580790077E-004
   8.0600000000000005E-002    -8.6751637876822179E-004
   8.1449999999999995E-002    -8.3501819965818363E-004
   8.2299999999999984E-002    -7.9832806082362278E-004
   8.3150000000000002E-002    -7.5767398807631873E-004
   8.3999999999999991E-002    -7.1331340232399219E-004
   8.4849999999999981E-002    -6.6553332635196948E-004
   8.5699999999999998E-002    -6.1464769669550864E-004
   8.6549999999999988E-002    -5.6099357090708569E-004
   8.7400000000000005E-002    -5.0492612905799546E-004
   8.8249999999999995E-002    -4.4681985253632267E-004
   8.9099999999999985E-002    -3.8705952308646068E-004
   8.9950000000000002E-002    -3.2604085616215397E-004
   9.0799999999999992E-002    -2.6416545933274308E-004
   9.1649999999999981E-002    -2.0183589050820421E-004
   9.2499999999999999E-002    -1.3945378723334719E-004
   9.3349999999999989E-002    -7.7414563194295739E-005
   9.4200000000000006E-002    -1.6108210328264383E-005
   9.5049999999999996E-002     4.4091988126835152E-005
   9.5899999999999985E-002     1.0282450886416393E-004
   9.6750000000000003E-002     1.5974932630210837E-004
   9.7599999999999992E-002     2.1454518135379145E-004
   9.8449999999999982E-002     2.6691580519526165E-004
   9.9299999999999999E-002     3.1659088700381990E-004
  0.10014999999999999          3.6332779733649705E-004
  0.10099999999999998          4.0691262342297123E-004
  0.10185000000000000          4.4716121213946855E-004
  0.10269999999999999          4.8392143825233146E-004
  0.10355000000000000          5.1707270863345838E-004
  0.10439999999999999          5.4652546602496207E-004
  0.10524999999999998          5.7222176422650904E-004
  0.10610000000000000          5.9413483399270548E-004
  0.10694999999999999          6.1226841382750960E-004
  0.10779999999999998          6.2665506441199239E-004
  0.10865000000000000          6.3735432476872648E-004
  0.10949999999999999          6.4445273632713555E-004
  0.11035000000000000          6.4806038229461849E-004
  0.11119999999999999          6.4830952065375450E-004
  0.11204999999999998          6.4535300330067168E-004
  0.11290000000000000          6.3936045915432421E-004
  0.11374999999999999          6.3051751884527310E-004
  0.11459999999999998          6.1902223666209356E-004
  0.11545000000000000          6.0508357910210651E-004
  0.11629999999999999          5.8891855592814609E-004
  0.11715000000000000          5.7074935689715349E-004
  0.11799999999999999          5.5080198290653238E-004
  0.11884999999999998          5.2930337748755582E-004
  0.11970000000000000          5.0647950216724691E-004
  0.12054999999999999          4.8255336374899261E-004
  0.12139999999999998          4.5774325177109175E-004
  0.12225000000000000          4.3226087593305787E-004
  0.12309999999999999          4.0630971890701518E-004
  0.12395000000000000          3.8008389538254694E-004
  0.12479999999999999          3.5376687864802390E-004
  0.12564999999999998          3.2753033782725828E-004
  0.12650000000000000          3.0153351750247473E-004
  0.12734999999999999          2.7592265215749088E-004
  0.12819999999999998          2.5083064968226389E-004
  0.12905000000000000          2.2637698869111975E-004
  0.12989999999999999          2.0266734950173811E-004
  0.13074999999999998          1.7979411323783303E-004
  0.13159999999999999          1.5783588623114147E-004
  0.13245000000000001          1.3685812043200612E-004
  0.13329999999999997          1.1691349909445779E-004
  0.13414999999999999          9.8042282084474114E-005
  0.13500000000000001          8.0273120232565937E-005
  0.13584999999999997          6.3624132630781249E-005
  0.13669999999999999          4.8103060645871527E-005
  0.13755000000000001          3.3708616492684196E-005
  0.13839999999999997          2.0431135275114022E-005
  0.13924999999999998          8.2536582151735587E-006
  0.14010000000000000         -2.8475102070515340E-006
  0.14094999999999996         -1.2902193192117404E-005
  0.14179999999999998         -2.1945672252180444E-005
  0.14265000000000000         -3.0017550140173557E-005
  0.14350000000000002         -3.7161090897995205E-005
  0.14434999999999998         -4.3422275640501369E-005
  0.14520000000000000         -4.8849069428728269E-005
  0.14605000000000001         -5.3490887311292141E-005
  0.14689999999999998         -5.7397733717911947E-005
  0.14774999999999999         -6.0620087621463740E-005
  0.14860000000000001         -6.3208312708790715E-005
  0.14944999999999997         -6.5212184049268297E-005
  0.15029999999999999         -6.6680828437421153E-005
  0.15115000000000001         -6.7662159638048999E-005
  0.15199999999999997         -6.8203016788063531E-005
  0.15284999999999999         -6.8348331776012334E-005
  0.15370000000000000         -6.8141201028238513E-005
  0.15454999999999997         -6.7622218835192843E-005
  0.15539999999999998         -6.6829981095549061E-005
  0.15625000000000000         -6.5800466414863681E-005
  0.15709999999999996         -6.4567720358039556E-005
  0.15794999999999998         -6.3163378791477749E-005
  0.15880000000000000         -6.1616682118373234E-005
  0.15965000000000001         -5.9955023117414454E-005
  0.16049999999999998         -5.8203299040898785E-005
  0.16134999999999999         -5.6384242612330610E-005
  0.16220000000000001         -5.4518164196799192E-005
  0.16304999999999997         -5.2623478797650088E-005
  0.16389999999999999         -5.0716549204111605E-005
  0.16475000000000001         -4.8811721561943839E-005
  0.16559999999999997         -4.6921810361925682E-005
  0.16644999999999999         -4.5057762722580060E-005
  0.16730000000000000         -4.3228898269386249E-005
  0.16814999999999997         -4.1442962205909392E-005
  0.16899999999999998         -3.9706000738248169E-005
  0.16985000000000000         -3.8022589849359226E-005
  0.17069999999999996         -3.6395788986506316E-005
  0.17154999999999998         -3.4827491443920827E-005
  0.17240000000000000         -3.3318701219568259E-005
  0.17325000000000002         -3.1869790094841077E-005
  0.17409999999999998         -3.0480608791355428E-005
  0.17494999999999999         -2.9150727609058301E-005
  0.17580000000000001         -2.7879276822131768E-005
  0.17664999999999997         -2.6664838295162908E-005
  0.17749999999999999         -2.5505315605286931E-005
  0.17835000000000001         -2.4397893381080424E-005
  0.17919999999999997         -2.3339252481366748E-005
  0.18004999999999999         -2.2325760979987480E-005
  0.18090000000000001         -2.1353715129947617E-005
  0.18174999999999997         -2.0419680401348058E-005
  0.18259999999999998         -1.9520803465445237E-005
  0.18345000000000000         -1.8654805774796707E-005
  0.18429999999999996         -1.7820040609913614E-005
  0.18514999999999998         -1.7015256245067488E-005
  0.18600000000000000         -1.6239251647959034E-005
  0.18684999999999996         -1.5490900165619188E-005
  0.18769999999999998         -1.4768955172998003E-005
  0.18855000000000000         -1.4072183839038505E-005
  0.18940000000000001         -1.3399454959156018E-005
  0.19024999999999997         -1.2749998332408849E-005
  0.19109999999999999         -1.2123615224069904E-005
  0.19195000000000001         -1.1520582768977601E-005
  0.19279999999999997         -1.0941657857872473E-005
  0.19364999999999999         -1.0387786597412555E-005
  0.19450000000000001         -9.8600358045115676E-006
  0.19534999999999997         -9.3592430924504607E-006
  0.19619999999999999         -8.8859134024138349E-006
  0.19705000000000000         -8.4403142287377045E-006
  0.19789999999999996         -8.0224157041599569E-006
  0.19874999999999998         -7.6320456608611165E-006
  0.19960000000000000         -7.2688979791108457E-006
  0.20044999999999996         -6.9326802692386660E-006
  0.20129999999999998         -6.6229355825752424E-006
  0.20215000000000000         -6.3390397786264070E-006
  0.20300000000000001         -6.0800618127347719E-006
  0.20384999999999998         -5.8447932924300481E-006
  0.20469999999999999         -5.6317580878342056E-006
  0.20555000000000001         -5.4392926627459281E-006
  0.20639999999999997         -5.2657256561349062E-006
  0.20724999999999999         -5.1093499693438689E-006
  0.20810000000000001         -4.9685204959582876E-006
  0.20894999999999997         -4.8415891249877297E-006
  0.20979999999999999         -4.7268337246445058E-006
  0.21065000000000000         -4.6223838389168098E-006
  0.21149999999999997         -4.5262209322425183E-006
  0.21234999999999998         -4.4362343919956134E-006
  0.21320000000000000         -4.3504069826636088E-006
  0.21404999999999996         -4.2670214882958432E-006
  0.21489999999999998         -4.1848051094337401E-006
  0.21575000000000000         -4.1029939735705787E-006
  0.21659999999999996         -4.0213717175063435E-006
  0.21744999999999998         -3.9400950059866479E-006
  0.21829999999999999         -3.8594753711586702E-006
  0.21915000000000001         -3.7798480127853515E-006
  0.21999999999999997         -3.7013876902552681E-006
  0.22084999999999999         -3.6241480393705016E-006
  0.22170000000000001         -3.5480946625581272E-006
  0.22254999999999997         -3.4732748003850196E-006
  0.22339999999999999         -3.3999778918185633E-006
  0.22425000000000000         -3.3288067949932402E-006
  0.22509999999999997         -3.2606185149032876E-006
  0.22594999999999998         -3.1964658402486977E-006
  0.22680000000000000         -3.1373270684793461E-006
  0.22764999999999996         -3.0839808949059767E-006
  0.22849999999999998         -3.0367691877032157E-006
  0.22935000000000000         -2.9956113786870493E-006
  0.23019999999999996         -2.9600524536980755E-006
  0.23104999999999998         -2.9293395120876715E-006
  0.23190000000000000         -2.9025909403042755E-006
  0.23275000000000001         -2.8789207991299025E-006
  0.23359999999999997         -2.8574729248284365E-006
  0.23444999999999999         -2.8374774985624763E-006
  0.23530000000000001         -2.8181125993434509E-006
  0.23614999999999997         -2.7984949921406071E-006
  0.23699999999999999         -2.7776487133022106E-006
  0.23785000000000001         -2.7544309533060408E-006
  0.23869999999999997         -2.7276315774581733E-006
  0.23954999999999999         -2.6960132516352819E-006
  0.24040000000000000         -2.6583812670075332E-006
  0.24124999999999996         -2.6136420898319883E-006
  0.24209999999999998         -2.5608912915423727E-006
  0.24295000000000000         -2.4994396795098187E-006
  0.24379999999999996         -2.4288754687124133E-006
  0.24464999999999998         -2.3490867100722125E-006
  0.24550000000000000         -2.2603107632023794E-006
  0.24634999999999996         -2.1631614624238033E-006
  0.24719999999999998         -2.0585782690286106E-006
  0.24804999999999999         -1.9477918126174296E-006
  0.24890000000000001         -1.8321939463102496E-006
  0.24974999999999997         -1.7132335899800804E-006
  0.25059999999999999         -1.5923086952817292E-006
  0.25145000000000001         -1.4707184502990255E-006
  0.25229999999999997         -1.3496611518767498E-006
  0.25314999999999999         -1.2303426021110984E-006
  0.25400000000000000         -1.1140616346201484E-006
  0.25484999999999997         -1.0022899992521587E-006
  0.25569999999999998         -8.9672075446554321E-007
  0.25655000000000000         -7.9914469056326591E-007
  0.25739999999999996         -7.1129730153028733E-007
  0.25824999999999998         -6.3465773452744893E-007
  0.25910000000000000         -5.7019704513645154E-007
  0.25994999999999996         -5.1829672342018991E-007
  0.26079999999999998         -4.7871219689414233E-007
  0.26164999999999999         -4.5070436302265059E-007
  0.26249999999999996         -4.3324386618417654E-007
  0.26334999999999997         -4.2523365130881822E-007
  0.26419999999999999         -4.2570988272460345E-007
  0.26505000000000001         -4.3390996180928674E-007
  0.26589999999999997         -4.4922369297387935E-007
  0.26674999999999999         -4.7107034432478989E-007
  0.26760000000000000         -4.9868403146033792E-007
  0.26844999999999997         -5.3099584242303762E-007
  0.26929999999999998         -5.6653542524633800E-007
  0.27015000000000000         -6.0353384198617935E-007
  0.27099999999999996         -6.4005921439040679E-007
  0.27184999999999998         -6.7427665019574989E-007
  0.27270000000000000         -7.0465472486439181E-007
  0.27354999999999996         -7.3014224385376637E-007
  0.27439999999999998         -7.5021306683895034E-007
  0.27524999999999999         -7.6483376452331458E-007
  0.27609999999999996         -7.7433542430929568E-007
  0.27694999999999997         -7.7924551473494479E-007
  0.27779999999999999         -7.8015636139348836E-007
  0.27865000000000001         -7.7761790410830070E-007
  0.27949999999999997         -7.7209821782131203E-007
  0.28034999999999999         -7.6402935664433435E-007
  0.28120000000000001         -7.5387569042947737E-007
  0.28204999999999997         -7.4218423420973886E-007
  0.28289999999999998         -7.2966552803925730E-007
  0.28375000000000000         -7.1722525502275037E-007
  0.28459999999999996         -7.0591786745839888E-007
  0.28544999999999998         -6.9690675061371791E-007
  0.28630000000000000         -6.9137548359141425E-007
  0.28714999999999996         -6.9041243482593864E-007
  0.28799999999999998         -6.9488811404747089E-007
  0.28885000000000000         -7.0535249745935921E-007
  0.28969999999999996         -7.2196013473587729E-007
  0.29054999999999997         -7.4444396286511121E-007
  0.29139999999999999         -7.7214971488923828E-007
  0.29224999999999995         -8.0412901557826448E-007
  0.29309999999999997         -8.3926621011399305E-007
  0.29394999999999999         -8.7642390124585637E-007
  0.29480000000000001         -9.1454724548469359E-007
  0.29564999999999997         -9.5270256243747428E-007
  0.29649999999999999         -9.9004412808882139E-007
  0.29735000000000000         -1.0257376766872532E-006
  0.29819999999999997         -1.0588255876483551E-006
  0.29904999999999998         -1.0881413538285566E-006
  0.29990000000000000         -1.1122880028786612E-006
  0.30074999999999996         -1.1297191608844282E-006
  0.30159999999999998         -1.1388826261306437E-006
  0.30245000000000000         -1.1384434153016822E-006
  0.30329999999999996         -1.1274695745591404E-006
  0.30414999999999998         -1.1055679609291226E-006
  0.30499999999999999         -1.0728959434260556E-006
  0.30584999999999996         -1.0300999904289395E-006
  0.30669999999999997         -9.7813041325236658E-007
  0.30754999999999999         -9.1806758458993482E-007
  0.30840000000000001         -8.5098023939314662E-007
  0.30924999999999997         -7.7785882390203347E-007
  0.31009999999999999         -6.9964983502454212E-007
  0.31095000000000000         -6.1734612223914336E-007
  0.31179999999999997         -5.3212913989343351E-007
  0.31264999999999998         -4.4543649191564550E-007
  0.31350000000000000         -3.5899083851875811E-007
  0.31434999999999996         -2.7473007340839723E-007
  0.31519999999999998         -1.9469246661498433E-007
  0.31605000000000000         -1.2084378152536156E-007
  0.31689999999999996         -5.4975349575311617E-008
  0.31774999999999998          1.3814232438445232E-009
  0.31859999999999999          4.6961633174538536E-008
  0.31944999999999996          8.0726026976321905E-008
  0.32029999999999997          1.0181205956866914E-007
  0.32114999999999999          1.0951266732907957E-007
  0.32199999999999995          1.0327049704903402E-007
  0.32284999999999997          8.2711720495543890E-008
  0.32369999999999999          4.7677616283855691E-008
  0.32455000000000001         -1.7774479083519488E-009
  0.32539999999999997         -6.5414127478712281E-008
  0.32624999999999998         -1.4289921376845430E-007
  0.32710000000000000         -2.3392009583838373E-007
  0.32794999999999996         -3.3828591651212359E-007
  0.32879999999999998         -4.5597680929098345E-007
  0.32965000000000000         -5.8715698065997883E-007
  0.33049999999999996         -7.3209255120633037E-007
  0.33134999999999998         -8.9109361239098071E-007
  0.33220000000000000         -1.0644278814685737E-006
  0.33304999999999996         -1.2523629131684701E-006
  0.33389999999999997         -1.4552180203340645E-006
  0.33474999999999999         -1.6735317817221717E-006
  0.33559999999999995         -1.9082073425837132E-006
  0.33644999999999997         -2.1606397375168118E-006
  0.33729999999999999         -2.4327501882875994E-006
  0.33815000000000001         -2.7269263983204100E-006
  0.33899999999999997         -3.0458571540213331E-006
  0.33984999999999999         -3.3923380605172039E-006
  0.34070000000000000         -3.7690767055871532E-006
  0.34154999999999996         -4.1785881236898621E-006
  0.34239999999999998         -4.6231856595394022E-006