 -0.12000000000000000          0.0000000000000000
 -0.11914999999999999          0.0000000000000000
 -0.11830000000000000          0.0000000000000000
 -0.11745000000000000          0.0000000000000000
 -0.11660000000000000          0.0000000000000000
 -0.11574999999999999          0.0000000000000000
 -0.11490000000000000          3.9932587216795783E-018
 -0.11405000000000000          3.9822618696495234E-017
 -0.11320000000000000          1.9731717241948068E-016
 -0.11234999999999999          6.1960817207250519E-016
 -0.11150000000000000          1.2510344847263983E-015
 -0.11065000000000000          1.0785858320402609E-015
 -0.10979999999999999         -3.0841592576776303E-015
 -0.10894999999999999         -1.7201336039211793E-014
 -0.10810000000000000         -4.7348057846147395E-014
 -0.10725000000000000         -9.0175864012275408E-014
 -0.10639999999999999         -1.1507946549390106E-013
 -0.10554999999999999         -4.4461899893498533E-014
 -0.10470000000000000          2.4810650861567611E-013
 -0.10385000000000000          8.8922385039864241E-013
 -0.10299999999999999          1.8754109025374857E-012
 -0.10214999999999999          2.8634218695619868E-012
 -0.10130000000000000          2.9577613376246216E-012
 -0.10045000000000000          6.7284063465019624E-013
  -9.9599999999999994E-002    -5.6781579401430474E-012
  -9.8750000000000004E-002    -1.6952962362124276E-011
  -9.7900000000000001E-002    -3.1529998523281059E-011
  -9.7049999999999997E-002    -4.3520761594430815E-011
  -9.6199999999999994E-002    -4.1906663574414167E-011
  -9.5349999999999990E-002    -1.2084604484227035E-011
  -9.4500000000000001E-002     5.8835679746746262E-011
  -9.3649999999999997E-002     1.7272072276978339E-010
  -9.2799999999999994E-002     3.0895844950684418E-010
  -9.1950000000000004E-002     4.1547625201523235E-010
  -9.1100000000000000E-002     4.0913987982267003E-010
  -9.0249999999999997E-002     1.9268803679830907E-010
  -8.9399999999999993E-002    -3.0796058471362543E-010
  -8.8549999999999990E-002    -1.0897390247366508E-009
  -8.7700000000000000E-002    -2.0162106452850058E-009
  -8.6849999999999997E-002    -2.7840567131110222E-009
  -8.5999999999999993E-002    -2.9425499256371846E-009
  -8.5150000000000003E-002    -1.9907898205313175E-009
  -8.4300000000000000E-002     4.4226649232150166E-010
  -8.3449999999999996E-002     4.3629063283153385E-009
  -8.2600000000000007E-002     9.1895929919665154E-009
  -8.1749999999999989E-002     1.3639111776550108E-008
  -8.0900000000000000E-002     1.5825605269072975E-008
  -8.0049999999999996E-002     1.3643415564816439E-008
  -7.9199999999999993E-002     5.4286381324980277E-009
  -7.8350000000000003E-002    -9.2143850970101004E-009
  -7.7499999999999999E-002    -2.8648514226868545E-008
  -7.6649999999999996E-002    -4.8804405835004674E-008
  -7.5800000000000006E-002    -6.3445955416293274E-008
  -7.4949999999999989E-002    -6.5286992199862524E-008
  -7.4099999999999999E-002    -4.7923453512320262E-008
  -7.3249999999999996E-002    -8.2527923652605959E-009
  -7.2399999999999992E-002     5.1231015736607478E-008
  -7.1550000000000002E-002     1.2105455337155223E-007
  -7.0699999999999999E-002     1.8505167880293218E-007
  -6.9849999999999995E-002     2.2279389286853068E-007
  -6.9000000000000006E-002     2.1411152206912500E-007
  -6.8149999999999988E-002     1.4498772650551531E-007
  -6.7299999999999999E-002     1.3481972346808964E-008
  -6.6449999999999995E-002    -1.6604941151959332E-007
  -6.5599999999999992E-002    -3.6212326256545965E-007
  -6.4750000000000002E-002    -5.2981849429559497E-007
  -6.3899999999999998E-002    -6.1908498175086461E-007
  -6.3049999999999995E-002    -5.8647990273920688E-007
  -6.2199999999999998E-002    -4.0790611462510215E-007
  -6.1350000000000002E-002    -8.9139922183101112E-008
  -6.0499999999999998E-002     3.2910555110808825E-007
  -5.9650000000000002E-002     7.7396874193729048E-007
  -5.8799999999999998E-002     1.1517836283213813E-006
  -5.7950000000000002E-002     1.3665292743300049E-006
  -5.7099999999999998E-002     1.3418401197200965E-006
  -5.6249999999999994E-002     1.0415717346160922E-006
  -5.5400000000000005E-002     4.8363966979065414E-007
  -5.4550000000000001E-002    -2.5711714127382407E-007
  -5.3699999999999998E-002    -1.0589529450551836E-006
  -5.2849999999999994E-002    -1.7749516673502603E-006
  -5.2000000000000005E-002    -2.2622640139301922E-006
  -5.1150000000000001E-002    -2.4123826304480079E-006
  -5.0299999999999997E-002    -2.1752909265374327E-006
  -4.9449999999999994E-002    -1.5714186756362835E-006
  -4.8600000000000004E-002    -6.8818765514020009E-007
  -4.7750000000000001E-002     3.3833732160261415E-007
  -4.6899999999999997E-002     1.3522559844192306E-006
  -4.6049999999999994E-002     2.2098646161926892E-006
  -4.5200000000000004E-002     2.8067401513472897E-006
  -4.4350000000000001E-002     3.0929567830028980E-006
  -4.3499999999999997E-002     3.0728368195816244E-006
  -4.2649999999999993E-002     2.7900556614375952E-006
  -4.1800000000000004E-002     2.3033042346635952E-006
  -4.0950000000000000E-002     1.6607417219605244E-006
  -4.0099999999999997E-002     8.8219977783117430E-007
  -3.9249999999999993E-002    -4.3969589037810314E-008
  -3.8400000000000004E-002    -1.1466620523663917E-006
  -3.7550000000000000E-002    -2.4433396680901822E-006
  -3.6699999999999997E-002    -3.9048543005656904E-006
  -3.5850000000000007E-002    -5.4251306672121897E-006
  -3.5000000000000003E-002    -6.8073724433829677E-006
  -3.4150000000000000E-002    -7.7753592419545748E-006
  -3.3299999999999996E-002    -8.0125949559956472E-006
  -3.2450000000000007E-002    -7.2246781110532110E-006
  -3.1600000000000003E-002    -5.2134023837979133E-006
  -3.0750000000000000E-002    -1.9464610960398701E-006
  -2.9899999999999996E-002     2.3944386110807594E-006
  -2.9050000000000006E-002     7.4010622419980571E-006
  -2.8200000000000003E-002     1.2469100937000351E-005
  -2.7349999999999999E-002     1.6870218986343689E-005
  -2.6499999999999996E-002     1.9855450415696557E-005
  -2.5650000000000006E-002     2.0772831892413175E-005
  -2.4800000000000003E-002     1.9178908797492727E-005
  -2.3949999999999999E-002     1.4924622715483489E-005
  -2.3099999999999996E-002     8.2008826634821532E-006
  -2.2250000000000006E-002    -4.6342691532606046E-007
  -2.1400000000000002E-002    -1.0249841252900774E-005
  -2.0549999999999999E-002    -2.0136595001462459E-005
  -1.9699999999999995E-002    -2.9009457351774379E-005
  -1.8850000000000006E-002    -3.5781609100533210E-005
  -1.8000000000000002E-002    -3.9508525631210617E-005
  -1.7149999999999999E-002    -3.9486851232386066E-005
  -1.6299999999999995E-002    -3.5330649131108887E-005
  -1.5450000000000005E-002    -2.7022116801186134E-005
  -1.4600000000000002E-002    -1.4936243727760343E-005
  -1.3749999999999998E-002     1.6018721587867351E-007
  -1.2899999999999995E-002     1.7135750994751451E-005
  -1.2050000000000005E-002     3.4549637102916204E-005
  -1.1200000000000002E-002     5.0737748510869753E-005
  -1.0349999999999998E-002     6.3932337992488053E-005
  -9.5000000000000084E-003     7.2414353992369842E-005
  -8.6500000000000049E-003     7.4692980221600404E-005
  -7.8000000000000014E-003     6.9699600064465210E-005
  -6.9499999999999978E-003     5.6975010651693695E-005
  -6.1000000000000082E-003     3.6823226904031754E-005
  -5.2500000000000047E-003     1.0401336943576260E-005
  -4.4000000000000011E-003    -2.0282579449943380E-005
  -3.5499999999999976E-003    -5.2482669537289688E-005
  -2.7000000000000079E-003    -8.2944546493985370E-005
  -1.8500000000000044E-003    -1.0823603715004946E-004
  -1.0000000000000009E-003    -1.2514501596007984E-004
  -1.4999999999999736E-004    -1.3109298271408930E-004
   6.9999999999999230E-004    -1.2450325465560873E-004
   1.5499999999999958E-003    -1.0506392646068425E-004
   2.3999999999999994E-003    -7.3839340606746660E-005
   3.2500000000000029E-003    -3.3206328668318906E-005
   4.0999999999999925E-003     1.3378099724255424E-005
   4.9499999999999961E-003     6.1742603451225695E-005
   5.7999999999999996E-003     1.0744358060858768E-004
   6.6499999999999893E-003     1.4621641843641378E-004
   7.5000000000000067E-003     1.7437385622333753E-004
   8.3499999999999963E-003     1.8910857770958035E-004
   9.1999999999999860E-003     1.8868158966729945E-004
   1.0050000000000003E-002     1.7250618012510228E-004
   1.0899999999999993E-002     1.4115312728097502E-004
   1.1750000000000010E-002     9.6310551523680463E-005
   1.2600000000000000E-002     4.0719769930064556E-005
   1.3449999999999990E-002    -2.1909393267018461E-005
   1.4300000000000007E-002    -8.7024371068384067E-005
   1.5149999999999997E-002    -1.4943223393676180E-004
   1.5999999999999986E-002    -2.0361495292171034E-004
   1.6850000000000004E-002    -2.4417478922051370E-004
   1.7699999999999994E-002    -2.6639279235722975E-004
   1.8549999999999983E-002    -2.6684106077635457E-004
   1.9400000000000001E-002    -2.4395228619889065E-004
   2.0249999999999990E-002    -1.9843264617750648E-004
   2.1100000000000008E-002    -1.3341124404018587E-004
   2.1949999999999997E-002    -5.4260057945543063E-005
   2.2799999999999987E-002     3.1923964542953441E-005
   2.3650000000000004E-002     1.1711241368167043E-004
   2.4499999999999994E-002     1.9329403014794845E-004
   2.5349999999999984E-002     2.5342279454161436E-004
   2.6200000000000001E-002     2.9221086969918961E-004
   2.7049999999999991E-002     3.0664601474238244E-004
   2.7900000000000008E-002     2.9617517696730499E-004
   2.8749999999999998E-002     2.6256279639224044E-004
   2.9599999999999987E-002     2.0949539066624870E-004
   3.0450000000000005E-002     1.4203647282755105E-004
   3.1299999999999994E-002     6.6043433236943436E-005
   3.2149999999999984E-002    -1.2369465462945037E-005
   3.3000000000000002E-002    -8.7276451495123619E-005
   3.3849999999999991E-002    -1.5329198538323346E-004
   3.4700000000000009E-002    -2.0585679428056168E-004
   3.5549999999999998E-002    -2.4149037933946424E-004
   3.6399999999999988E-002    -2.5802820016750431E-004
   3.7250000000000005E-002    -2.5482928100712597E-004
   3.8099999999999995E-002    -2.3291065367095983E-004
   3.8949999999999985E-002    -1.9494728375571424E-004
   3.9800000000000002E-002    -1.4508431659355047E-004
   4.0649999999999992E-002    -8.8539309134590973E-005
   4.1500000000000009E-002    -3.1021450331617164E-005
   4.2349999999999999E-002     2.1955879071328580E-005
   4.3199999999999988E-002     6.5755071590820413E-005
   4.4050000000000006E-002     9.7165354088946961E-005
   4.4899999999999995E-002     1.1472505845012215E-004
   4.5749999999999985E-002     1.1876394932450686E-004
   4.6600000000000003E-002     1.1117608500592638E-004
   4.7449999999999992E-002     9.4990031217601092E-005
   4.8299999999999982E-002     7.3837446984645591E-005
   4.9149999999999999E-002     5.1429949428688336E-005
   4.9999999999999989E-002     3.1128896091263817E-005
   5.0850000000000006E-002     1.5651595057627701E-005
   5.1699999999999996E-002     6.9130530172423396E-006
   5.2549999999999986E-002     5.9641282344933356E-006
   5.3400000000000003E-002     1.2980023946599333E-005
   5.4249999999999993E-002     2.7259923934831391E-005
   5.5099999999999982E-002     4.7229669972881167E-005
   5.5950000000000000E-002     7.0472519728682047E-005
   5.6799999999999989E-002     9.3834895209752271E-005
   5.7650000000000007E-002     1.1364976134643377E-004
   5.8499999999999996E-002     1.2610447833839514E-004
   5.9349999999999986E-002     1.2772652473857902E-004
   6.0200000000000004E-002     1.1592550023837881E-004
   6.1049999999999993E-002     8.9475713078722609E-005
   6.1899999999999983E-002     4.8839713875945578E-005
   6.2750000000000000E-002    -3.7665294285329505E-006
   6.3599999999999990E-002    -6.4609360513719955E-005
   6.4450000000000007E-002    -1.2893278564350729E-004
   6.5299999999999997E-002    -1.9164653052630121E-004
   6.6149999999999987E-002    -2.4804700271402382E-004
   6.7000000000000004E-002    -2.9446316088305153E-004
   6.7849999999999994E-002    -3.2868977612145113E-004
   6.8699999999999983E-002    -3.5016515672996597E-004
   6.9550000000000001E-002    -3.5990300295771037E-004
   7.0399999999999990E-002    -3.6024372992534120E-004
   7.1249999999999980E-002    -3.5453200233360641E-004
   7.2099999999999997E-002    -3.4683874475671569E-004
   7.2949999999999987E-002    -3.4173901193059836E-004
   7.3800000000000004E-002    -3.4422322742187642E-004
   7.4649999999999994E-002    -3.5965028387817502E-004
   7.5499999999999984E-002    -3.9370783356852234E-004
   7.6350000000000001E-002    -4.5228078318457779E-004
   7.7199999999999991E-002    -5.4121738425489242E-004
   7.8049999999999981E-002    -6.6598023803301489E-004
   7.8899999999999998E-002    -8.3128145191138452E-004
   7.9749999999999988E-002    -1.0407883183880286E-003
   8.0600000000000005E-002    -1.2970773149585072E-003
   8.1449999999999995E-002    -1.6018733154162189E-003
   8.2299999999999984E-002    -1.9565975882022061E-003
   8.3150000000000002E-002    -2.3631976107151569E-003
   8.3999999999999991E-002    -2.8250380575526855E-003
   8.4849999999999981E-002    -3.3477914490533324E-003
   8.5699999999999998E-002    -3.9400807087820663E-003
   8.6549999999999988E-002    -4.6136032618699606E-003
   8.7400000000000005E-002    -5.3831405162048382E-003
   8.8249999999999995E-002    -6.2660056893522487E-003
   8.9099999999999985E-002    -7.2813095473542424E-003
   8.9950000000000002E-002    -8.4496171268058241E-003
   9.0799999999999992E-002    -9.7922057749352340E-003
   9.1649999999999981E-002    -1.1331173984781378E-002
   9.2499999999999999E-002    -1.3089507433683166E-002
   9.3349999999999989E-002    -1.5091217715728527E-002
   9.4200000000000006E-002    -1.7361859460504468E-002
   9.5049999999999996E-002    -1.9928733617646348E-002
   9.5899999999999985E-002    -2.2820828390335217E-002
   9.6750000000000003E-002    -2.6068462040803306E-002
   9.7599999999999992E-002    -2.9703163789434960E-002
   9.8449999999999982E-002    -3.3756863975769325E-002
   9.9299999999999999E-002    -3.8261957324836414E-002
  0.10014999999999999         -4.3252026912506465E-002
  0.10099999999999998         -4.8760885211349303E-002
  0.10185000000000000         -5.4824809236857557E-002
  0.10269999999999999         -6.1481631110230028E-002
  0.10355000000000000         -6.8772362942408377E-002
  0.10439999999999999         -7.6738840576704340E-002
  0.10524999999999998         -8.5426012901042708E-002
  0.10610000000000000         -9.4878081351531432E-002
  0.10694999999999999        -0.10513588568398725
  0.10779999999999998        -0.11623961812702818
  0.10865000000000000        -0.12822198421621051
  0.10949999999999999        -0.14110964941027665
  0.11035000000000000        -0.15492368213563784
  0.11119999999999999        -0.16967760047117450
  0.11204999999999998        -0.18537644956627766
  0.11290000000000000        -0.20201863678635021
  0.11374999999999999        -0.21959222470482326
  0.11459999999999998        -0.23807475460266131
  0.11545000000000000        -0.25742964999708595
  0.11629999999999999        -0.27760882151872524
  0.11715000000000000        -0.29854419622537154
  0.11799999999999999        -0.32014945839208914
  0.11884999999999998        -0.34231860921636342
  0.11970000000000000        -0.36492217542272343
  0.12054999999999999        -0.38781143599946238
  0.12139999999999998        -0.41081471901452743
  0.12225000000000000        -0.43373715070278440
  0.12309999999999999        -0.45635350122652218
  0.12395000000000000        -0.47841257404527604
  0.12479999999999999        -0.49963367246561791
  0.12564999999999998        -0.51970487927134079
  0.12650000000000000        -0.53828228634392639
  0.12734999999999999        -0.55498398458331311
  0.12819999999999998        -0.56939412662493649
  0.12905000000000000        -0.58107124722501657
  0.12989999999999999        -0.58953812344300471
  0.13074999999999998        -0.59429587950557905
  0.13159999999999999        -0.59482492735909254
  0.13245000000000001        -0.59058242797640759
  0.13329999999999997        -0.58101119402737955
  0.13414999999999999        -0.56554188960394547
  0.13500000000000001        -0.54360822199130376
  0.13584999999999997        -0.51463414954044429
  0.13669999999999999        -0.47805866875067271
  0.13755000000000001        -0.43335466390847233
  0.13839999999999997        -0.38000929333205863
  0.13924999999999998        -0.31758056060789447
  0.14010000000000000        -0.24564522180089135
  0.14094999999999996        -0.16388329886406047
  0.14179999999999998         -7.2015912618278305E-002
  0.14265000000000000          3.0138252143148574E-002
  0.14350000000000002         0.14267971240375682
  0.14434999999999998         0.26558495603503257
  0.14520000000000000         0.39871524316805274
  0.14605000000000001         0.54183083501153551
  0.14689999999999998         0.69449016635701943
  0.14774999999999999         0.85614570511824539
  0.14860000000000001          1.0260779672018774
  0.14944999999999997          1.2033749161955423
  0.15029999999999999          1.3869862793169727
  0.15115000000000001          1.5756687684626982
  0.15199999999999997          1.7679877792156640
  0.15284999999999999          1.9623868517713616
  0.15370000000000000          2.1571329209510810
  0.15454999999999997          2.3503509537683782
  0.15539999999999998          2.5400247279417774
  0.15625000000000000          2.7240061890996450
  0.15709999999999996          2.9000472807850954
  0.15794999999999998          3.0657708609777732
  0.15880000000000000          3.2187821504946568
  0.15965000000000001          3.3566363376485917
  0.16049999999999998          3.4768233352045832
  0.16134999999999999          3.5769750554125159
  0.16220000000000001          3.6546481931823287
  0.16304999999999997          3.7076167262143112
  0.16389999999999999          3.7337189330325096
  0.16475000000000001          3.7309761192447235
  0.16559999999999997          3.6976347504878357
  0.16644999999999999          3.6321132764144326
  0.16730000000000000          3.5330997062624272
  0.16814999999999997          3.3996465739378126
  0.16899999999999998          3.2310688816973712
  0.16985000000000000          3.0270819718453339
  0.17069999999999996          2.7877750973965552
  0.17154999999999998          2.5136406003753398
  0.17240000000000000          2.2055432128034127
  0.17325000000000002          1.8648374475275251
  0.17409999999999998          1.4932447570246385
  0.17494999999999999          1.0929517201052488
  0.17580000000000001         0.66651820691961716
  0.17664999999999997         0.21690342200174312
  0.17749999999999999        -0.25253923635503894
  0.17835000000000001        -0.73812467167937557
  0.17919999999999997         -1.2358726474801582
  0.18004999999999999         -1.7414874632721129
  0.18090000000000001         -2.2504735730057455
  0.18174999999999997         -2.7581130814445278
  0.18259999999999998         -3.2595858996175222
  0.18345000000000000         -3.7499605766123718
  0.18429999999999996         -4.2243040526632045
  0.18514999999999998         -4.6777623103366937
  0.18600000000000000         -5.1055295772103699
  0.18684999999999996         -5.5030255887828696
  0.18769999999999998         -5.8658336321311735
  0.18855000000000000         -6.1898875770158490
  0.18940000000000001         -6.4713573852810811
  0.19024999999999997         -6.7069133941438199
  0.19109999999999999         -6.8935753238130175
  0.19195000000000001         -7.0288765731281586
  0.19279999999999997         -7.1108365993447427
  0.19364999999999999         -7.1380036861936214
  0.19450000000000001         -7.1095725178130937
  0.19534999999999997         -7.0252252020107289
  0.19619999999999999         -6.8853348405837371
  0.19705000000000000         -6.6907806593224111
  0.19789999999999996         -6.4431104034875126
  0.19874999999999998         -6.1444160767247862
  0.19960000000000000         -5.7972910487175637
  0.20044999999999996         -5.4048677746393547
  0.20129999999999998         -4.9707174134078320
  0.20215000000000000         -4.4988470262309415
  0.20300000000000001         -3.9936861886556736
  0.20384999999999998         -3.4599494724971755
  0.20469999999999999         -2.9026953196991818
  0.20555000000000001         -2.3271367679530437
  0.20639999999999997         -1.7386580239260323
  0.20724999999999999         -1.1426829156870593
  0.20810000000000001        -0.54473621627719404
  0.20894999999999997          4.9781922289938468E-002
  0.20979999999999999         0.63554749818507694
  0.21065000000000000          1.2074032094810159
  0.21149999999999997          1.7604590075295916
  0.21234999999999998          2.2900997051610368
  0.21320000000000000          2.7920129650758829
  0.21404999999999996          3.2622690615292025
  0.21489999999999998          3.6973005119233164
  0.21575000000000000          4.0940007997276355
  0.21659999999999996          4.4496953402818749
  0.21744999999999998          4.7622478378515680
  0.21829999999999999          5.0299973080857097
  0.21915000000000001          5.2518181401741169
  0.21999999999999997          5.4270620100963836
  0.22084999999999999          5.5555711065794977
  0.22170000000000001          5.6377182901012901
  0.22254999999999997          5.6743023125064029
  0.22339999999999999          5.6665749194952708
  0.22425000000000000          5.6162164545838413
  0.22509999999999997          5.5251938228482853
  0.22594999999999998          5.3958875963787536
  0.22680000000000000          5.2309093214222955
  0.22764999999999996          5.0331900004550674
  0.22849999999999998          4.8058001046884433
  0.22935000000000000          4.5520808890983799
  0.23019999999999996          4.2754211197739904
  0.23104999999999998          3.9792852808995507
  0.23190000000000000          3.6672510312903457
  0.23275000000000001          3.3428497393317858
  0.23359999999999997          3.0095849195058606
  0.23444999999999999          2.6708502550184878
  0.23530000000000001          2.3299503241461661
  0.23614999999999997          1.9899738070397417
  0.23699999999999999          1.6538785667097158
  0.23785000000000001          1.3243884041397336
  0.23869999999999997          1.0040345472791496
  0.23954999999999999         0.69512661818117261
  0.24040000000000000         0.39969321226683674
  0.24124999999999996         0.11953063246003541
  0.24209999999999998        -0.14379918466338229
  0.24295000000000000        -0.38900043686090358
  0.24379999999999996        -0.61503089013534973
  0.24464999999999998        -0.82115619657337435
  0.24550000000000000         -1.0068820490842318
  0.24634999999999996         -1.1719344767812379
  0.24719999999999998         -1.3163217026797218
  0.24804999999999999         -1.4402239319170298
  0.24890000000000001         -1.5440604907360040
  0.24974999999999997         -1.6283909070413030
  0.25059999999999999         -1.6939211990133436
  0.25145000000000001         -1.7414719495243234
  0.25229999999999997         -1.7720040237786945
  0.25314999999999999         -1.7865572264946594
  0.25400000000000000         -1.7862582580424413
  0.25484999999999997         -1.7722908178875549
  0.25569999999999998         -1.7459203742963760
  0.25655000000000000         -1.7083978057269995
  0.25739999999999996         -1.6610342620678396
  0.25824999999999998         -1.6051135567382531
  0.25910000000000000         -1.5419125319179974
  0.25994999999999996         -1.4726412887336027
  0.26079999999999998         -1.3984564955482748
  0.26164999999999999         -1.3204845315753828
  0.26249999999999996         -1.2397466647953159
  0.26334999999999997         -1.1572333969187900
  0.26419999999999999         -1.0738458869526391
  0.26505000000000001        -0.99042684216527133
  0.26589999999999997        -0.90774317581308328
  0.26674999999999999        -0.82650796434364449
  0.26760000000000000        -0.74733992398229920
  0.26844999999999997        -0.67077676518654572
  0.26929999999999998        -0.59726729785025912
  0.27015000000000000        -0.52716854725842210
  0.27099999999999996        -0.46074992858471853
  0.27184999999999998        -0.39820893648012579
  0.27270000000000000        -0.33968136654192854
  0.27354999999999996        -0.28523365949847101
  0.27439999999999998        -0.23488507635276112
  0.27524999999999999        -0.18862938896595471
  0.27609999999999996        -0.14642528606542177
  0.27694999999999997        -0.10820484835544300
  0.27779999999999999         -7.3883537151113940E-002
  0.27865000000000001         -4.3317397258552576E-002
  0.27949999999999997         -1.6349653339342143E-002
  0.28034999999999999          7.1998129387960824E-003
  0.28120000000000001          2.7563424300053693E-002
  0.28204999999999997          4.4966777188880563E-002
  0.28289999999999998          5.9652172071762044E-002
  0.28375000000000000          7.1849435373576506E-002
  0.28459999999999996          8.1789494602900054E-002
  0.28544999999999998          8.9690191543550846E-002
  0.28630000000000000          9.5744871931147571E-002
  0.28714999999999996         0.10014211274955953
  0.28799999999999998         0.10305122964596464
  0.28885000000000000         0.10465636876980490
  0.28969999999999996         0.10512102840172949
  0.29054999999999997         0.10462275692799773
  0.29139999999999999         0.10333114617828512
  0.29224999999999995         0.10140204257166495
  0.29309999999999997          9.8981347391852270E-002
  0.29394999999999999          9.6188476914458088E-002
  0.29480000000000001          9.3125706575077377E-002
  0.29564999999999997          8.9857712984771021E-002
  0.29649999999999999          8.6436856026146827E-002
  0.29735000000000000          8.2909040557174393E-002
  0.29819999999999997          7.9305216718067312E-002
  0.29904999999999998          7.5662082623897203E-002
  0.29990000000000000          7.2014478130188464E-002
  0.30074999999999996          6.8407261909419315E-002
  0.30159999999999998          6.4881845390828169E-002
  0.30245000000000000          6.1477818697920988E-002
  0.30329999999999996          5.8215061818888164E-002
  0.30414999999999998          5.5113672477757086E-002
  0.30499999999999999          5.2171228491275305E-002
  0.30584999999999996          4.9383871681685058E-002
  0.30669999999999997          4.6737003660075119E-002
  0.30754999999999999          4.4217956122333174E-002
  0.30840000000000001          4.1816206134267030E-002
  0.30924999999999997          3.9526574522949103E-002
  0.31009999999999999          3.7343743740465063E-002
  0.31095000000000000          3.5265779491209411E-002
  0.31179999999999997          3.3294175209716025E-002
  0.31264999999999998          3.1421422925610211E-002
  0.31350000000000000          2.9639970015304013E-002
  0.31434999999999996          2.7938562794908261E-002
  0.31519999999999998          2.6306366166697452E-002
  0.31605000000000000          2.4738689909573466E-002
  0.31689999999999996          2.3228961171205098E-002
  0.31774999999999998          2.1775480545216545E-002
  0.31859999999999999          2.0378248134211505E-002
  0.31944999999999996          1.9037864020256388E-002
  0.32029999999999997          1.7752146015704635E-002
  0.32114999999999999          1.6516857516507992E-002
  0.32199999999999995          1.5330369131909606E-002
  0.32284999999999997          1.4188231833538269E-002
  0.32369999999999999          1.3085104707530382E-002
  0.32455000000000001          1.2026495353957223E-002
  0.32539999999999997          1.1018309828090614E-002
  0.32624999999999998          1.0069602932346586E-002
  0.32710000000000000          9.1903735820402146E-003
  0.32794999999999996          8.3832113558621330E-003
  0.32879999999999998          7.6480405136849028E-003
  0.32965000000000000          6.9739391951736248E-003
  0.33049999999999996          6.3514955713516279E-003
  0.33134999999999998          5.7672627224639814E-003
  0.33220000000000000          5.2122206478837285E-003
  0.33304999999999996          4.6879245786999165E-003
  0.33389999999999997          4.2036973154138705E-003
  0.33474999999999999          3.7757911074367601E-003
  0.33559999999999995          3.4278622095298581E-003
  0.33644999999999997          3.1839939337346738E-003
  0.33729999999999999          3.0570367011600167E-003
  0.33815000000000001          3.0515497243200802E-003
  0.33899999999999997          3.1574948697335212E-003
  0.33984999999999999          3.3552991940000391E-003
  0.34070000000000000          3.6153436477913219E-003
  0.34154999999999996          3.9085150445546824E-003
  0.34239999999999998          4.2127592019738473E-003
  0.34325000000000000          4.5139394542705290E-003
  0.34409999999999996          4.8089714162207172E-003
  0.34494999999999998          5.1029554073172712E-003
  0.34580000000000000          5.4045385859609234E-003
  0.34664999999999996          5.7213376042368428E-003
  0.34749999999999998          6.0534004282493045E-003
  0.34834999999999999          6.3960492379531208E-003
  0.34919999999999995          6.7327949877978152E-003
  0.35004999999999997          7.0428799982490929E-003
  0.35089999999999999          7.3038778287871971E-003
  0.35174999999999995          7.4949306277901778E-003
  0.35259999999999997          7.6043032409128216E-003
  0.35344999999999999          7.6280735295027272E-003
  0.35430000000000000          7.5697742387366637E-003
  0.35514999999999997          7.4396234036523939E-003
  0.35599999999999998          7.2499329242057022E-003
  0.35685000000000000          7.0108224820411439E-003
  0.35769999999999996          6.7267407247175049E-003
  0.35854999999999998          6.3986681546453110E-003