 -0.12000000000000000          0.0000000000000000
 -0.11914999999999999          0.0000000000000000
 -0.11830000000000000          0.0000000000000000
 -0.11745000000000000          0.0000000000000000
 -0.11660000000000000          0.0000000000000000
 -0.11574999999999999          0.0000000000000000
 -0.11490000000000000          0.0000000000000000
 -0.11405000000000000          0.0000000000000000
 -0.11320000000000000          0.0000000000000000
 -0.11234999999999999          0.0000000000000000
 -0.11150000000000000          0.0000000000000000
 -0.11065000000000000          0.0000000000000000
 -0.10979999999999999          0.0000000000000000
 -0.10894999999999999          1.2011439169587793E-038
 -0.10810000000000000          2.0941918792898494E-037
 -0.10725000000000000          1.6385902223394562E-036
 -0.10639999999999999          7.0687974212798057E-036
 -0.10554999999999999          1.1930725918713461E-035
 -0.10470000000000000         -5.4671675277824831E-035
 -0.10385000000000000         -5.0916009457197973E-034
 -0.10299999999999999         -2.1414194239465467E-033
 -0.10214999999999999         -5.6928937950989711E-033
 -0.10130000000000000         -8.1840454072480793E-033
 -0.10045000000000000          7.4311695837244555E-033
  -9.9599999999999994E-002     8.7933434335132171E-032
  -9.8750000000000004E-002     3.0866105315138149E-031
  -9.7900000000000001E-002     6.9168728540024302E-031
  -9.7049999999999997E-002     9.4381502821176113E-031
  -9.6199999999999994E-002    -2.1824421283017800E-032
  -9.5349999999999990E-002    -4.4968688179091181E-030
  -9.4500000000000001E-002    -1.5361374057846670E-029
  -9.3649999999999997E-002    -3.2706874499762691E-029
  -9.2799999999999994E-002    -4.6098871131600044E-029
  -9.1950000000000004E-002    -2.3717456807198062E-029
  -9.1100000000000000E-002     9.3202975734656517E-029
  -9.0249999999999997E-002     3.7168962007946802E-028
  -8.9399999999999993E-002     8.1834022008687217E-028
  -8.8549999999999990E-002     1.2465858302038648E-027
  -8.7700000000000000E-002     1.1142673387606288E-027
  -8.6849999999999997E-002    -5.4235052451323256E-028
  -8.5999999999999993E-002    -4.8454883007308750E-027
  -8.5150000000000003E-002    -1.2214560427453334E-026
  -8.4300000000000000E-002    -2.0806088411710285E-026
  -8.3449999999999996E-002    -2.4653027496501840E-026
  -8.2600000000000007E-002    -1.2722823811150595E-026
  -8.1749999999999989E-002     2.9036572315883893E-026
  -8.0900000000000000E-002     1.1037802130679189E-025
  -8.0049999999999996E-002     2.2321245425360472E-025
  -7.9199999999999993E-002     3.2450370663727366E-025
  -7.8350000000000003E-002     3.2397051692211434E-025
  -7.7499999999999999E-002     9.0902327053273454E-026
  -7.6649999999999996E-002    -5.0331311026563149E-025
  -7.5800000000000006E-002    -1.4968272483088619E-024
  -7.4949999999999989E-002    -2.7124384517031088E-024
  -7.4099999999999999E-002    -3.6376370148281733E-024
  -7.3249999999999996E-002    -3.3877543593595038E-024
  -7.2399999999999992E-002    -8.5379525075991115E-025
  -7.1550000000000002E-002     4.8782749997692767E-024
  -7.0699999999999999E-002     1.3826431797515632E-023
  -6.9849999999999995E-002     2.4265415394893533E-023
  -6.9000000000000006E-002     3.2061640147902611E-023
  -6.8149999999999988E-002     3.0691878884653418E-023
  -6.7299999999999999E-002     1.2498367958742647E-023
  -6.6449999999999995E-002    -2.8455705021548812E-023
  -6.5599999999999992E-002    -9.2075592245278151E-023
  -6.4750000000000002E-002    -1.6742538600983399E-022
  -6.3899999999999998E-002    -2.2931081651696709E-022
  -6.3049999999999995E-002    -2.3885083609349882E-022
  -6.2199999999999998E-002    -1.5062815482602141E-022
  -6.1350000000000002E-002     7.2171229638077745E-023
  -6.0499999999999998E-002     4.3579444951962503E-022
  -5.9650000000000002E-002     8.9200390097926502E-022
  -5.8799999999999998E-002     1.3209851112864500E-021
  -5.7950000000000002E-002     1.5324258128805303E-021
  -5.7099999999999998E-002     1.2954827787325210E-021
  -5.6249999999999994E-002     4.0300468917620551E-022
  -5.5400000000000005E-002    -1.2350683366470893E-021
  -5.4550000000000001E-002    -3.4882523738028677E-021
  -5.3699999999999998E-002    -5.9250860099396010E-021
  -5.2849999999999994E-002    -7.7972650116073029E-021
  -5.2000000000000005E-002    -8.1271344183401021E-021
  -5.1150000000000001E-002    -5.9193427781575657E-021
  -5.0299999999999997E-002    -4.8416792448077834E-022
  -4.9449999999999994E-002     8.1830865679543798E-021
  -4.8600000000000004E-002     1.9064348243961749E-020
  -4.7750000000000001E-002     2.9947080493214780E-020
  -4.6899999999999997E-002     3.7540367365953373E-020
  -4.6049999999999994E-002     3.7959852425200320E-020
  -4.5200000000000004E-002     2.7584693295716475E-020
  -4.4350000000000001E-002     4.1866397248757615E-021
  -4.3499999999999997E-002    -3.1874809449933751E-020
  -4.2649999999999993E-002    -7.6679587124224502E-020
  -4.1800000000000004E-002    -1.2231761151576540E-019
  -4.0950000000000000E-002    -1.5729042095775357E-019
  -4.0099999999999997E-002    -1.6792700880210541E-019
  -3.9249999999999993E-002    -1.4083062345628128E-019
  -3.8400000000000004E-002    -6.6163777594906758E-020
  -3.7550000000000000E-002     5.8648566535414362E-020
  -3.6699999999999997E-002     2.2543408980931159E-019
  -3.5850000000000007E-002     4.1281700313021318E-019
  -3.5000000000000003E-002     5.8569468047346144E-019
  -3.4150000000000000E-002     6.9751585090928881E-019
  -3.3299999999999996E-002     6.9600902638901230E-019
  -3.2450000000000007E-002     5.3255184609268907E-019
  -3.1600000000000003E-002     1.7465610484905288E-019
  -3.0750000000000000E-002    -3.7989690699459997E-019
  -2.9899999999999996E-002    -1.0897768654820254E-018
  -2.9050000000000006E-002    -1.8611040666285984E-018
  -2.8200000000000003E-002    -2.5466431963194237E-018
  -2.7349999999999999E-002    -2.9568397316927391E-018
  -2.6499999999999996E-002    -2.8850566607220638E-018
  -2.5650000000000006E-002    -2.1469739121542690E-018
  -2.4800000000000003E-002    -6.3074947784521015E-019
  -2.3949999999999999E-002     1.6492827908344230E-018
  -2.3099999999999996E-002     4.5061677796951202E-018
  -2.2250000000000006E-002     7.5542702565604487E-018
  -2.1400000000000002E-002     1.0216905276555415E-017
  -2.0549999999999999E-002     1.1778214860509361E-017
  -1.9699999999999995E-002     1.1483872370844934E-017
  -1.8850000000000006E-002     8.6862617277713691E-018
  -1.8000000000000002E-002     3.0188819464849073E-018
  -1.7149999999999999E-002    -5.4264596137676633E-018
  -1.6299999999999995E-002    -1.5955374854747429E-017
  -1.5450000000000005E-002    -2.7200159739182406E-017
  -1.4600000000000002E-002    -3.7161501274444079E-017
  -1.3749999999999998E-002    -4.3391428888625469E-017
  -1.2899999999999995E-002    -4.3327367046579785E-017
  -1.2050000000000005E-002    -3.4760218372055200E-017
  -1.1200000000000002E-002    -1.6387554286885377E-017
  -1.0349999999999998E-002     1.1629153512877529E-017
  -9.5000000000000084E-003     4.7210663832621561E-017
  -8.6500000000000049E-003     8.6130410801306129E-017
  -7.8000000000000014E-003     1.2212429741768955E-016
  -6.9499999999999978E-003     1.4742511246231503E-016
  -6.1000000000000082E-003     1.5375134603985003E-016
  -5.2500000000000047E-003     1.3370264228974890E-016
  -4.4000000000000011E-003     8.2422072752714463E-017
  -3.5499999999999976E-003    -7.0737663382737571E-019
  -2.7000000000000079E-003    -1.1064005516622771E-016
  -1.8500000000000044E-003    -2.3586599157959822E-016
  -1.0000000000000009E-003    -3.5856268227323371E-016
  -1.4999999999999736E-004    -4.5595032706783417E-016
   6.9999999999999230E-004    -5.0294746259211310E-016
   1.5499999999999958E-003    -4.7600936645072254E-016
   2.3999999999999994E-003    -3.5777921566166380E-016
   3.2500000000000029E-003    -1.4193252591814353E-016
   4.0999999999999925E-003     1.6260931066909796E-016
   4.9499999999999961E-003     5.2902050402889218E-016
   5.7999999999999996E-003     9.1234823236452601E-016
   6.6499999999999893E-003     1.2523903426276724E-015
   7.5000000000000067E-003     1.4799474836983424E-015
   8.3499999999999963E-003     1.5261940541967971E-015
   9.1999999999999860E-003     1.3343134770364032E-015
   1.0050000000000003E-002     8.7195990180988505E-016
   1.0899999999999993E-002     1.4265642053173060E-016
   1.1750000000000010E-002    -8.0598284534870769E-016
   1.2600000000000000E-002    -1.8792413226995868E-015
   1.3449999999999990E-002    -2.9391057636615252E-015
   1.4300000000000007E-002    -3.8157479292926412E-015
   1.5149999999999997E-002    -4.3265265887879487E-015
   1.5999999999999986E-002    -4.3011835572679171E-015
   1.6850000000000004E-002    -3.6107366288975288E-015
   1.7699999999999994E-002    -2.1965277878477041E-015
   1.8549999999999983E-002    -9.5178028873622649E-017
   1.9400000000000001E-002     2.5450947823806233E-015
   2.0249999999999990E-002     5.4610258979302162E-015
   2.1100000000000008E-002     8.2870150992652987E-015
   2.1949999999999997E-002     1.0585660864639178E-014
   2.2799999999999987E-002     1.1895565092514905E-014
   2.3650000000000004E-002     1.1793222326351192E-014
   2.4499999999999994E-002     9.9630187866206857E-015
   2.5349999999999984E-002     6.2668492331623215E-015
   2.6200000000000001E-002     8.0309581340729214E-016
   2.7049999999999991E-002    -6.0559035940603608E-015
   2.7900000000000008E-002    -1.3657785843043454E-014
   2.8749999999999998E-002    -2.1102770091929697E-014
   2.9599999999999987E-002    -2.7317906391163624E-014
   3.0450000000000005E-002    -3.1170512560016153E-014
   3.1299999999999994E-002    -3.1612297260178671E-014
   3.2149999999999984E-002    -2.7839937122295178E-014
   3.3000000000000002E-002    -1.9453319774931310E-014
   3.3849999999999991E-002    -6.5898123074667003E-015
   3.4700000000000009E-002     9.9872784210640988E-015
   3.5549999999999998E-002     2.8865674821378841E-014
   3.6399999999999988E-002     4.8041024984945853E-014
   3.7250000000000005E-002     6.5060849044411627E-014
   3.8099999999999995E-002     7.7253293857778147E-014
   3.8949999999999985E-002     8.2027664189930250E-014
   3.9800000000000002E-002     7.7222605971890080E-014
   4.0649999999999992E-002     6.1467226218273265E-014
   4.1500000000000009E-002     3.4511972286979363E-014
   4.2349999999999999E-002    -2.5186556686640504E-015
   4.3199999999999988E-002    -4.6998983313815585E-014
   4.4050000000000006E-002    -9.4841163516062708E-014
   4.4899999999999995E-002    -1.4072689612285129E-013
   4.5749999999999985E-002    -1.7853793662232783E-013
   4.6600000000000003E-002    -2.0196692649797379E-013
   4.7449999999999992E-002    -2.0526285834757686E-013
   4.8299999999999982E-002    -1.8404160200454719E-013
   4.9149999999999999E-002    -1.3607224006308658E-013
   4.9999999999999989E-002    -6.1940536134984820E-014
   5.0850000000000006E-002     3.4509157017084149E-014
   5.1699999999999996E-002     1.4604050491945625E-013
   5.2549999999999986E-002     2.6226510846981905E-013
   5.3400000000000003E-002     3.7029000546377491E-013
   5.4249999999999993E-002     4.5576792572779121E-013
   5.5099999999999982E-002     5.0430290256319062E-013
   5.5950000000000000E-002     5.0311730604350741E-013
   5.6799999999999989E-002     4.4284066087128919E-013
   5.7650000000000007E-002     3.1923739984714705E-013
   5.8499999999999996E-002     1.3466008973504106E-013
   5.9349999999999986E-002    -1.0099942574331895E-013
   6.0200000000000004E-002    -3.7007377271241204E-013
   6.1049999999999993E-002    -6.4776646096032169E-013
   6.1899999999999983E-002    -9.0376910461477620E-013
   6.2750000000000000E-002    -1.1048262336475334E-012
   6.3599999999999990E-002    -1.2180958015676476E-012
   6.4450000000000007E-002    -1.2150225256607089E-012
   6.5299999999999997E-002    -1.0753333526194546E-012
   6.6149999999999987E-002    -7.9069429470198875E-013
   6.7000000000000004E-002    -3.6755227500412922E-013
   6.7849999999999994E-002     1.7126866551658706E-013
   6.8699999999999983E-002     7.8655089464407827E-013
   6.9550000000000001E-002     1.4244359550814251E-012
   7.0399999999999990E-002     2.0199741516318669E-012
   7.1249999999999980E-002     2.5023222810820376E-012
   7.2099999999999997E-002     2.8012781021342937E-012
   7.2949999999999987E-002     2.8546875767597270E-012
   7.3800000000000004E-002     2.6161249375128023E-012
   7.4649999999999994E-002     2.0621466860580664E-012
   7.5499999999999984E-002     1.1983440544509278E-012
   7.6350000000000001E-002     6.3391815842965962E-014
   7.7199999999999991E-002    -1.2696573429822548E-012
   7.8049999999999981E-002    -2.6954453992031702E-012
   7.8899999999999998E-002    -4.0821092953335549E-012
   7.9749999999999988E-002    -5.2808126982278317E-012
   8.0600000000000005E-002    -6.1385857233548649E-012
   8.1449999999999995E-002    -6.5135894621120361E-012
   8.2299999999999984E-002    -6.2914930305210776E-012
   8.3150000000000002E-002    -5.4013310856915208E-012
   8.3999999999999991E-002    -3.8290547689118570E-012
   8.4849999999999981E-002    -1.6270531483850860E-012
   8.5699999999999998E-002     1.0818327565861413E-012
   8.6549999999999988E-002     4.1068386987424576E-012
   8.7400000000000005E-002     7.1988270939619530E-012
   8.8249999999999995E-002     1.0066712254607147E-011
   8.9099999999999985E-002     1.2399948837711877E-011
   8.9950000000000002E-002     1.3895690806162372E-011
   9.0799999999999992E-002     1.4288668298613897E-011
   9.1649999999999981E-002     1.3381398341267352E-011
   9.2499999999999999E-002     1.1072019484405656E-011
   9.3349999999999989E-002     7.3768707772562227E-012
   9.4200000000000006E-002     2.4450154046395270E-012
   9.5049999999999996E-002    -3.4377715757411574E-012
   9.5899999999999985E-002    -9.8573968059125951E-012
   9.6750000000000003E-002    -1.6293110002554413E-011
   9.7599999999999992E-002    -2.2152131080476600E-011
   9.8449999999999982E-002    -2.6815593293600249E-011
   9.9299999999999999E-002    -2.9692757266741409E-011
  0.10014999999999999         -3.0279290844912064E-011
  0.10099999999999998         -2.8214507029238013E-011
  0.10185000000000000         -2.3332088037786898E-011
  0.10269999999999999         -1.5698861202903879E-011
  0.10355000000000000         -5.6368569334667228E-012
  0.10439999999999999          6.2750810715320531E-012
  0.10524999999999998          1.9222410227518035E-011
  0.10610000000000000          3.2199237336032878E-011
  0.10694999999999999          4.4074503725676004E-011
  0.10779999999999998          5.3676643249655604E-011
  0.10865000000000000          5.9891311209722352E-011
  0.10949999999999999          6.1765199772422366E-011
  0.11035000000000000          5.8607444315829568E-011
  0.11119999999999999          5.0079402141006229E-011
  0.11204999999999998          3.6263554343581070E-011
  0.11290000000000000          1.7703060847663950E-011
  0.11374999999999999         -4.5945737804671162E-012
  0.11459999999999998         -2.9193787796008292E-011
  0.11545000000000000         -5.4307916186731076E-011
  0.11629999999999999         -7.7913874872088150E-011
  0.11715000000000000         -9.7898102195724151E-011
  0.11799999999999999         -1.1222409437688887E-010
  0.11884999999999998         -1.1910916659846250E-010
  0.11970000000000000         -1.1719648923303718E-010
  0.12054999999999999         -1.0570769275817398E-010
  0.12139999999999998         -8.4561809445330474E-011
  0.12225000000000000         -5.4447808232768099E-011
  0.12309999999999999         -1.6840705817721179E-011
  0.12395000000000000          2.6045181069688267E-011
  0.12479999999999999          7.1367546258073630E-011
  0.12564999999999998          1.1582838813061194E-010
  0.12650000000000000          1.5589825897738412E-010
  0.12734999999999999          1.8807796780693400E-010
  0.12819999999999998          2.0917892362314013E-010
  0.12905000000000000          2.1660005662308542E-010
  0.12989999999999999          2.0857812666932127E-010
  0.13074999999999998          1.8438910235644873E-010
  0.13159999999999999          1.4448123161830135E-010
  0.13245000000000001          9.0525042301733106E-011
  0.13329999999999997          2.5371940271743146E-011
  0.13414999999999999         -4.7080327483717608E-011
  0.13500000000000001         -1.2211001673559121E-010
  0.13584999999999997         -1.9446916025338598E-010
  0.13669999999999999         -2.5873838074501407E-010
  0.13755000000000001         -3.0971526848794906E-010
  0.13839999999999997         -3.4280892095670880E-010
  0.13924999999999998         -3.5441114468499732E-010
  0.14010000000000000         -3.4221527921134165E-010
  0.14094999999999996         -3.0545457237460662E-010
  0.14179999999999998         -2.4503805393868605E-010
  0.14265000000000000         -1.6356820232710210E-010
  0.14350000000000002         -6.5233917815285519E-011
  0.14434999999999998          4.4417514571557841E-011
  0.14520000000000000          1.5881607627375613E-010
  0.14605000000000001          2.7078926127831847E-010
  0.14689999999999998          3.7303734271258685E-010
  0.14774999999999999          4.5862850773730371E-010
  0.14860000000000001          5.2147841454382655E-010
  0.14944999999999997          5.5677934096341371E-010
  0.15029999999999999          5.6134830885951196E-010
  0.15115000000000001          5.3386885754477329E-010
  0.15199999999999997          4.7500956199460553E-010
  0.15284999999999999          3.8741025032437173E-010
  0.15370000000000000          2.7553594357920640E-010
  0.15454999999999997          1.4540886718524877E-010
  0.15539999999999998          4.2367834204085369E-012
  0.15625000000000000         -1.4003407564170747E-010
  0.15709999999999996         -2.7920729740875223E-010
  0.15794999999999998         -4.0532593067714489E-010
  0.15880000000000000         -5.1112322785823543E-010
  0.15965000000000001         -5.9039616216181679E-010
  0.16049999999999998         -6.3827040399827555E-010
  0.16134999999999999         -6.5133575858842464E-010
  0.16220000000000001         -6.2763996510049052E-010
  0.16304999999999997         -5.6654087328950543E-010
  0.16389999999999999         -4.6842790045058591E-010
  0.16475000000000001         -3.3433371168397275E-010
  0.16559999999999997         -1.6546650979646354E-010
  0.16644999999999999          3.7305234245909810E-011
  0.16730000000000000          2.7398450525957799E-010
  0.16814999999999997          5.4596984471925693E-010
  0.16899999999999998          8.5654297284351795E-010
  0.16985000000000000          1.2112971850304501E-009
  0.17069999999999996          1.6184831693402546E-009
  0.17154999999999998          2.0892677621494182E-009
  0.17240000000000000          2.6379008466766009E-009
  0.17325000000000002          3.2818179092108372E-009
  0.17409999999999998          4.0416971965039982E-009
  0.17494999999999999          4.9415207941421037E-009
  0.17580000000000001          6.0086760664875356E-009
  0.17664999999999997          7.2741644687259428E-009
  0.17749999999999999          8.7729427441491788E-009
  0.17835000000000001          1.0544475128797409E-008
  0.17919999999999997          1.2633504956600298E-008
  0.18004999999999999          1.5091092260989415E-008
  0.18090000000000001          1.7975889843780810E-008
  0.18174999999999997          2.1355665482258478E-008
  0.18259999999999998          2.5309049460146411E-008
  0.18345000000000000          2.9927466338249383E-008
  0.18429999999999996          3.5317245345094577E-008
  0.18514999999999998          4.1601846727350813E-008
  0.18600000000000000          4.8924226938486904E-008
  0.18684999999999996          5.7449337339482870E-008
  0.18769999999999998          6.7366701868839226E-008
  0.18855000000000000          7.8893197153913606E-008
  0.18940000000000001          9.2275876290176493E-008
  0.19024999999999997          1.0779503047159176E-007
  0.19109999999999999          1.2576735388303190E-007
  0.19195000000000001          1.4654940005776025E-007
  0.19279999999999997          1.7054131430749977E-007
  0.19364999999999999          1.9819092306236785E-007
  0.19450000000000001          2.2999819859902053E-007
  0.19534999999999997          2.6652012026477831E-007
  0.19619999999999999          3.0837590142708536E-007
  0.19705000000000000          3.5625248462816836E-007
  0.19789999999999996          4.1091038672086786E-007
  0.19874999999999998          4.7318982602539481E-007
  0.19960000000000000          5.4401741847105278E-007
  0.20044999999999996          6.2441282491188649E-007
  0.20129999999999998          7.1549560465302027E-007
  0.20215000000000000          8.1849198946332356E-007
  0.20300000000000001          9.3474058236589829E-007
  0.20384999999999998          1.0656981003887944E-006
  0.20469999999999999          1.2129452927825088E-006
  0.20555000000000001          1.3781912825606106E-006
  0.20639999999999997          1.5632785526651850E-006
  0.20724999999999999          1.7701854230755695E-006
  0.20810000000000001          2.0010286419683675E-006
  0.20894999999999997          2.2580649705967870E-006
  0.20979999999999999          2.5436901682591034E-006
  0.21065000000000000          2.8604367357294967E-006
  0.21149999999999997          3.2109724506174964E-006
  0.21234999999999998          3.5980928164775255E-006
  0.21320000000000000          4.0247165769086366E-006
  0.21404999999999996          4.4938743789674102E-006
  0.21489999999999998          5.0086971173273872E-006
  0.21575000000000000          5.5723986892048236E-006
  0.21659999999999996          6.1882577002786704E-006
  0.21744999999999998          6.8595980758959095E-006
  0.21829999999999999          7.5897597934306484E-006
  0.21915000000000001          8.3820710491936098E-006
  0.21999999999999997          9.2398139849460044E-006
  0.22084999999999999          1.0166183548488031E-005
  0.22170000000000001          1.1164247233508177E-005
  0.22254999999999997          1.2236895215005391E-005
  0.22339999999999999          1.3386789967098016E-005
  0.22425000000000000          1.4616309097988643E-005
  0.22509999999999997          1.5927486436860852E-005
  0.22594999999999998          1.7321946064837238E-005
  0.22680000000000000          1.8800835619842458E-005
  0.22764999999999996          2.0364755381673038E-005
  0.22849999999999998          2.2013683139939566E-005
  0.22935000000000000          2.3746904701730194E-005
  0.23019999999999996          2.5562935868389624E-005
  0.23104999999999998          2.7459437279032702E-005
  0.23190000000000000          2.9433143448329835E-005
  0.23275000000000001          3.1479781939894061E-005
  0.23359999999999997          3.3594006202211322E-005
  0.23444999999999999          3.5769322683281235E-005
  0.23530000000000001          3.7998015574367606E-005
  0.23614999999999997          4.0271095379769933E-005
  0.23699999999999999          4.2578250226054915E-005
  0.23785000000000001          4.4907802499795202E-005
  0.23869999999999997          4.7246688905251626E-005
  0.23954999999999999          4.9580425866656843E-005
  0.24040000000000000          5.1893102010489661E-005
  0.24124999999999996          5.4167381050209945E-005
  0.24209999999999998          5.6384544233623277E-005
  0.24295000000000000          5.8524523498638912E-005
  0.24379999999999996          6.0565979709025366E-005
  0.24464999999999998          6.2486378206104724E-005
  0.24550000000000000          6.4262089275777135E-005
  0.24634999999999996          6.5868527995450164E-005
  0.24719999999999998          6.7280284954060368E-005
  0.24804999999999999          6.8471300234650498E-005
  0.24890000000000001          6.9415060861555188E-005
  0.24974999999999997          7.0084818894739225E-005
  0.25059999999999999          7.0453800928154525E-005
  0.25145000000000001          7.0495458469666618E-005
  0.25229999999999997          7.0183739993390473E-005
  0.25314999999999999          6.9493369854441297E-005
  0.25400000000000000          6.8400158002287885E-005
  0.25484999999999997          6.6881302374793524E-005
  0.25569999999999998          6.4915691166594170E-005
  0.25655000000000000          6.2484245721247122E-005
  0.25739999999999996          5.9570212051648465E-005
  0.25824999999999998          5.6159502257009477E-005
  0.25910000000000000          5.2240971146634431E-005
  0.25994999999999996          4.7806722319065952E-005
  0.26079999999999998          4.2852402979178011E-005
  0.26164999999999999          3.7377457763237883E-005
  0.26249999999999996          3.1385368621083790E-005
  0.26334999999999997          2.4883824051699587E-005
  0.26419999999999999          1.7884899572064548E-005
  0.26505000000000001          1.0405215855265180E-005
  0.26589999999999997          2.4660376166434035E-006
  0.26674999999999999         -5.9066784053656540E-006
  0.26760000000000000         -1.4682301493253058E-005
  0.26844999999999997         -2.3825579602683885E-005
  0.26929999999999998         -3.3296728107747943E-005
  0.27015000000000000         -4.3051575343681089E-005
  0.27099999999999996         -5.3041781943144508E-005
  0.27184999999999998         -6.3215084209960359E-005
  0.27270000000000000         -7.3515630642467491E-005
  0.27354999999999996         -8.3884285324974244E-005
  0.27439999999999998         -9.4259087634896728E-005
  0.27524999999999999         -1.0457567342469072E-004
  0.27609999999999996         -1.1476776152259746E-004
  0.27694999999999997         -1.2476772136119064E-004
  0.27779999999999999         -1.3450707203543645E-004
  0.27865000000000001         -1.4391709675459075E-004
  0.27949999999999997         -1.5292943969595629E-004
  0.28034999999999999         -1.6147675379286151E-004
  0.28120000000000001         -1.6949334787886617E-004
  0.28204999999999997         -1.7691575150995294E-004
  0.28289999999999998         -1.8368338987140003E-004
  0.28375000000000000         -1.8973911676338056E-004
  0.28459999999999996         -1.9502986851251903E-004
  0.28544999999999998         -1.9950719414058796E-004
  0.28630000000000000         -2.0312774934685859E-004
  0.28714999999999996         -2.0585377677262353E-004
  0.28799999999999998         -2.0765352555262117E-004
  0.28885000000000000         -2.0850164299906446E-004
  0.28969999999999996         -2.0837945948029107E-004
  0.29054999999999997         -2.0727527416039928E-004
  0.29139999999999999         -2.0518450713308641E-004
  0.29224999999999995         -2.0210981230287260E-004
  0.29309999999999997         -1.9806111768985203E-004
  0.29394999999999999         -1.9305554875096017E-004
  0.29480000000000001         -1.8711738040046470E-004
  0.29564999999999997         -1.8027781304764991E-004
  0.29649999999999999         -1.7257471954240509E-004
  0.29735000000000000         -1.6405232612358537E-004
  0.29819999999999997         -1.5476081192068118E-004
  0.29904999999999998         -1.4475592652626551E-004
  0.29990000000000000         -1.3409851982426588E-004
  0.30074999999999996         -1.2285401099252296E-004
  0.30159999999999998         -1.1109174174945867E-004
  0.30245000000000000         -9.8884362764243446E-005
  0.30329999999999996         -8.6307185047206384E-005
  0.30414999999999998         -7.3437552608763201E-005
  0.30499999999999999         -6.0354133012377159E-005
  0.30584999999999996         -4.7136227527255321E-005
  0.30669999999999997         -3.3863087406364533E-005
  0.30754999999999999         -2.0613269550970731E-005
  0.30840000000000001         -7.4640009506996207E-006
  0.30924999999999997          5.5094554829969523E-006
  0.31009999999999999          1.8234392018469029E-005
  0.31095000000000000          3.0641213961462561E-005
  0.31179999999999997          4.2663986747261667E-005
  0.31264999999999998          5.4240941069902454E-005
  0.31350000000000000          6.5314885686805355E-005
  0.31434999999999996          7.5833574116608831E-005
  0.31519999999999998          8.5749977224108554E-005
  0.31605000000000000          9.5022507953354914E-005
  0.31689999999999996          1.0361529625886004E-004
  0.31774999999999998          1.1149831714320887E-004
  0.31859999999999999          1.1864745632778157E-004
  0.31944999999999996          1.2504447085265162E-004
  0.32029999999999997          1.3067695178280923E-004
  0.32114999999999999          1.3553823003440837E-004
  0.32199999999999995          1.3962730704673547E-004
  0.32284999999999997          1.4294869666724015E-004
  0.32369999999999999          1.4551208351618546E-004
  0.32455000000000001          1.4733207956673988E-004
  0.32539999999999997          1.4842788349572674E-004
  0.32624999999999998          1.4882291854908362E-004
  0.32710000000000000          1.4854459141865840E-004
  0.32794999999999996          1.4762378202826785E-004
  0.32879999999999998          1.4609445780369544E-004
  0.32965000000000000          1.4399315724197365E-004
  0.33049999999999996          1.4135870141660680E-004
  0.33134999999999998          1.3823171919692516E-004
  0.33220000000000000          1.3465431435066914E-004
  0.33304999999999996          1.3066957604516139E-004
  0.33389999999999997          1.2632123526788998E-004
  0.33474999999999999          1.2165324027899108E-004
  0.33559999999999995          1.1670935205780237E-004
  0.33644999999999997          1.1153284339077623E-004
  0.33729999999999999          1.0616616576363586E-004
  0.33815000000000001          1.0065063637927769E-004
  0.33899999999999997          9.5026191535075758E-005
  0.33984999999999999          8.9331111827551277E-005
  0.34070000000000000          8.3601843828955727E-005
  0.34154999999999996          7.7872837649592039E-005
  0.34239999999999998          7.2176398122600867E-005
  0.34325000000000000          6.6542570294045496E-005