 -0.12000000000000000          0.0000000000000000
 -0.11914999999999999          0.0000000000000000
 -0.11830000000000000         -6.2029031971043581E-012
 -0.11745000000000000         -1.9041304895365963E-011
 -0.11660000000000000         -2.0920308935693158E-011
 -0.11574999999999999          2.0168246181201832E-011
 -0.11490000000000000          1.2760633644768888E-010
 -0.11405000000000000          2.8901915251402934E-010
 -0.11320000000000000          4.4891283884724848E-010
 -0.11234999999999999          5.3333762588815893E-010
 -0.11150000000000000          4.9378620184510580E-010
 -0.11065000000000000          3.3894910040504023E-010
 -0.10979999999999999          1.2873944755280450E-010
 -0.10894999999999999         -6.5425036090962161E-011
 -0.10810000000000000         -1.9962543267035054E-010
 -0.10725000000000000         -2.6009907442416760E-010
 -0.10639999999999999         -2.3310168215563887E-010
 -0.10554999999999999         -9.9553036434201323E-011
 -0.10470000000000000          7.3125382730151416E-011
 -0.10385000000000000         -6.2351004867195456E-011
 -0.10299999999999999         -1.2939495935167771E-009
 -0.10214999999999999         -4.7252758060731133E-009
 -0.10130000000000000         -1.1142549758233468E-008
 -0.10045000000000000         -1.9918976077013500E-008
  -9.9599999999999994E-002    -2.7948526021219058E-008
  -9.8750000000000004E-002    -2.9490840652511974E-008
  -9.7900000000000001E-002    -1.7802575349993846E-008
  -9.7049999999999997E-002     1.1225842745503515E-008
  -9.6199999999999994E-002     5.4452057844545964E-008
  -9.5349999999999990E-002     9.8246308688579762E-008
  -9.4500000000000001E-002     1.1960975681320421E-007
  -9.3649999999999997E-002     9.3700866472665630E-008
  -9.2799999999999994E-002     7.1296407764590648E-009
  -9.1950000000000004E-002    -1.2739962289135114E-007
  -9.1100000000000000E-002    -2.6271230904438565E-007
  -9.0249999999999997E-002    -3.2317586154238096E-007
  -8.9399999999999993E-002    -2.2948672353228911E-007
  -8.8549999999999990E-002     6.1275340091458608E-008
  -8.7700000000000000E-002     5.1353736056797904E-007
  -8.6849999999999997E-002     9.8951774335901163E-007
  -8.5999999999999993E-002     1.2644275739329273E-006
  -8.5150000000000003E-002     1.0910677535050343E-006
  -8.4300000000000000E-002     3.0506038383940596E-007
  -8.3449999999999996E-002    -1.0606931437206760E-006
  -8.2600000000000007E-002    -2.7005043724736684E-006
  -8.1749999999999989E-002    -4.0484882809667366E-006
  -8.0900000000000000E-002    -4.4077829835870313E-006
  -8.0049999999999996E-002    -3.1847896709527702E-006
  -7.9199999999999993E-002    -1.6844824390894315E-007
  -7.8350000000000003E-002     4.2437161860733554E-006
  -7.7499999999999999E-002     8.9800823470310415E-006
  -7.6649999999999996E-002     1.2465143908761149E-005
  -7.5800000000000006E-002     1.3029318528441050E-005
  -7.4949999999999989E-002     9.4708441701928626E-006
  -7.4099999999999999E-002     1.6020218634663800E-006
  -7.3249999999999996E-002    -9.4221995488510070E-006
  -7.2399999999999992E-002    -2.1160476064144307E-005
  -7.1550000000000002E-002    -3.0387897701521644E-005
  -7.0699999999999999E-002    -3.3957280891354705E-005
  -6.9849999999999995E-002    -2.9786261527569704E-005
  -6.9000000000000006E-002    -1.7652273562530586E-005
  -6.8149999999999988E-002     5.0454870656412169E-007
  -6.7299999999999999E-002     2.0940148869564475E-005
  -6.6449999999999995E-002     3.9084241891881939E-005
  -6.5599999999999992E-002     5.0868685600516261E-005
  -6.4750000000000002E-002     5.3980282732143912E-005
  -6.3899999999999998E-002     4.8589154574011121E-005
  -6.3049999999999995E-002     3.7245771369024705E-005
  -6.2199999999999998E-002     2.3910451974584190E-005
  -6.1350000000000002E-002     1.2397059330183937E-005
  -6.0499999999999998E-002     4.7602526570680528E-006
  -5.9650000000000002E-002     2.4278363492508635E-007
  -5.8799999999999998E-002    -4.7422517140655962E-006
  -5.7950000000000002E-002    -1.5442170644647222E-005
  -5.7099999999999998E-002    -3.6683650849305400E-005
  -5.6249999999999994E-002    -7.0519964400841311E-005
  -5.5400000000000005E-002    -1.1443044933131949E-004
  -5.4550000000000001E-002    -1.6079760194420874E-004
  -5.3699999999999998E-002    -1.9802394069031050E-004
  -5.2849999999999994E-002    -2.1312502996902953E-004
  -5.2000000000000005E-002    -1.9511994677635949E-004
  -5.1150000000000001E-002    -1.3821598549469441E-004
  -5.0299999999999997E-002    -4.3775103103648036E-005
  -4.9449999999999994E-002     7.9608163436679718E-005
  -4.8600000000000004E-002     2.1804340445808406E-004
  -4.7750000000000001E-002     3.5573490789159710E-004
  -4.6899999999999997E-002     4.7886301004004968E-004
  -4.6049999999999994E-002     5.7875362326380991E-004
  -4.5200000000000004E-002     6.5347090585539521E-004
  -4.4350000000000001E-002     7.0739575200786525E-004
  -4.3499999999999997E-002     7.4906094013221097E-004
  -4.2649999999999993E-002     7.8811804509549199E-004
  -4.1800000000000004E-002     8.3259640632549030E-004
  -4.0950000000000000E-002     8.8726385452403520E-004
  -4.0099999999999997E-002     9.5377140142148195E-004
  -3.9249999999999993E-002     1.0323159461911140E-003
  -3.8400000000000004E-002     1.1242863342670502E-003
  -3.7550000000000000E-002     1.2347829974431266E-003
  -3.6699999999999997E-002     1.3738580046786771E-003
  -3.5850000000000007E-002     1.5564004845016930E-003
  -3.5000000000000003E-002     1.7999093158057597E-003
  -3.4150000000000000E-002     2.1218979389451094E-003
  -3.3299999999999996E-002     2.5366675922534948E-003
  -3.2450000000000007E-002     3.0531918859814534E-003
  -3.1600000000000003E-002     3.6749575690465499E-003
  -3.0750000000000000E-002     4.4012244562662770E-003
  -2.9899999999999996E-002     5.2295753909468064E-003
  -2.9050000000000006E-002     6.1590984694330948E-003
  -2.8200000000000003E-002     7.1934136528277823E-003
  -2.7349999999999999E-002     8.3423233624168747E-003
  -2.6499999999999996E-002     9.6223503752077347E-003
  -2.5650000000000006E-002     1.1056159337597612E-002
  -2.4800000000000003E-002     1.2671186561674229E-002
  -2.3949999999999999E-002     1.4497679439518622E-002
  -2.3099999999999996E-002     1.6568015227881240E-002
  -2.2250000000000006E-002     1.8914615714533921E-002
  -2.1400000000000002E-002     2.1571394784896676E-002
  -2.0549999999999999E-002     2.4570609466948667E-002
  -1.9699999999999995E-002     2.7945427983957362E-002
  -1.8850000000000006E-002     3.1727919466121399E-002
  -1.8000000000000002E-002     3.5950170913724072E-002
  -1.7149999999999999E-002     4.0645450337044024E-002
  -1.6299999999999995E-002     4.5844459788809161E-002
  -1.5450000000000005E-002     5.1584259548367026E-002
  -1.4600000000000002E-002     5.7902809650976064E-002
  -1.3749999999999998E-002     6.4842444130553609E-002
  -1.2899999999999995E-002     7.2449079524226662E-002
  -1.2050000000000005E-002     8.0770688155420406E-002
  -1.1200000000000002E-002     8.9853806125169230E-002
  -1.0349999999999998E-002     9.9741654202943550E-002
  -9.5000000000000084E-003    0.11047071918605697
  -8.6500000000000049E-003    0.12207120889887259
  -7.8000000000000014E-003    0.13456934113150484
  -6.9499999999999978E-003    0.14798366040192962
  -6.1000000000000082E-003    0.16234109752101702
  -5.2500000000000047E-003    0.17765958795552483
  -4.4000000000000011E-003    0.19396005751184753
  -3.5499999999999976E-003    0.21126304537869417
  -2.7000000000000079E-003    0.22955622214425070
  -1.8500000000000044E-003    0.24882496550200450
  -1.0000000000000009E-003    0.26901230107250806
  -1.4999999999999736E-004    0.29003328953173291
   6.9999999999999230E-004    0.31176337026071643
   1.5499999999999958E-003    0.33405338776101823
   2.3999999999999994E-003    0.35674345195511487
   3.2500000000000029E-003    0.37964853943629545
   4.0999999999999925E-003    0.40259395039569196
   4.9499999999999961E-003    0.42539424988939462
   5.7999999999999996E-003    0.44785613800796487
   6.6499999999999893E-003    0.46975307424585028
   7.5000000000000067E-003    0.49083012630810097
   8.3499999999999963E-003    0.51078336406878178
   9.1999999999999860E-003    0.52927672970360840
   1.0050000000000003E-002    0.54591271132416863
   1.0899999999999993E-002    0.56025216117706145
   1.1750000000000010E-002    0.57184878705740805
   1.2600000000000000E-002    0.58010136829508729
   1.3449999999999990E-002    0.58460099747191285
   1.4300000000000007E-002    0.58477873856870233
   1.5149999999999997E-002    0.58007122109461928
   1.5999999999999986E-002    0.57006373358393159
   1.6850000000000004E-002    0.55420009734926501
   1.7699999999999994E-002    0.53192123638384170
   1.8549999999999983E-002    0.50274758757048488
   1.9400000000000001E-002    0.46615712136823312
   2.0249999999999990E-002    0.42171965335500111
   2.1100000000000008E-002    0.36889721547479570
   2.1949999999999997E-002    0.30731629797799986
   2.2799999999999987E-002    0.23668913954730630
   2.3650000000000004E-002    0.15660486777509011
   2.4499999999999994E-002     6.6895822442611830E-002
   2.5349999999999984E-002    -3.2556521918755105E-002
   2.6200000000000001E-002   -0.14173572761048214
   2.7049999999999991E-002   -0.26057684745215159
   2.7900000000000008E-002   -0.38899388639719346
   2.8749999999999998E-002   -0.52663330164823774
   2.9599999999999987E-002   -0.67307079154047600
   3.0450000000000005E-002   -0.82761569074922769
   3.1299999999999994E-002   -0.98951128284682632
   3.2149999999999984E-002    -1.1579128042308269
   3.3000000000000002E-002    -1.3318428774115345
   3.3849999999999991E-002    -1.5100150277903472
   3.4700000000000009E-002    -1.6911524764375074
   3.5549999999999998E-002    -1.8738060249681396
   3.6399999999999988E-002    -2.0565273611067867
   3.7250000000000005E-002    -2.2374240612589991
   3.8099999999999995E-002    -2.4148074139230102
   3.8949999999999985E-002    -2.5865878977370711
   3.9800000000000002E-002    -2.7504536217952991
   4.0649999999999992E-002    -2.9046424657845118
   4.1500000000000009E-002    -3.0464239917363400
   4.2349999999999999E-002    -3.1739369492383065
   4.3199999999999988E-002    -3.2848872471602872
   4.4050000000000006E-002    -3.3768669271708176
   4.4899999999999995E-002    -3.4479013066910422
   4.5749999999999985E-002    -3.4959738561872622
   4.6600000000000003E-002    -3.5190916586771177
   4.7449999999999992E-002    -3.5155866886202953
   4.8299999999999982E-002    -3.4838852743282742
   4.9149999999999999E-002    -3.4225635468272508
   4.9999999999999989E-002    -3.3306038675905278
   5.0850000000000006E-002    -3.2069488825505847
   5.1699999999999996E-002    -3.0512053862461785
   5.2549999999999986E-002    -2.8628481138840516
   5.3400000000000003E-002    -2.6416430840833920
   5.4249999999999993E-002    -2.3882417062306902
   5.5099999999999982E-002    -2.1033922039149080
   5.5950000000000000E-002    -1.7884262477331681
   5.6799999999999989E-002    -1.4449239734036794
   5.7650000000000007E-002    -1.0748229760324164
   5.8499999999999996E-002   -0.68067757553621666
   5.9349999999999986E-002   -0.26489492503217860
   6.0200000000000004E-002    0.16944329890857035
   6.1049999999999993E-002    0.61927934241503690
   6.1899999999999983E-002     1.0809246251460856
   6.2750000000000000E-002     1.5505190389095076
   6.3599999999999990E-002     2.0238654155870859
   6.4450000000000007E-002     2.4969053041447187
   6.5299999999999997E-002     2.9649190921988757
   6.6149999999999987E-002     3.4234224475653896
   6.7000000000000004E-002     3.8677146590005536
   6.7849999999999994E-002     4.2934198271720199
   6.8699999999999983E-002     4.6960104702292575
   6.9550000000000001E-002     5.0713954396470218
   7.0399999999999990E-002     5.4155146444915427
   7.1249999999999980E-002     5.7244847437153412
   7.2099999999999997E-002     5.9948611428145764
   7.2949999999999987E-002     6.2232106337947855
   7.3800000000000004E-002     6.4066760884811513
   7.4649999999999994E-002     6.5426840922083533
   7.5499999999999984E-002     6.6291793605647733
   7.6350000000000001E-002     6.6649385411524893
   7.7199999999999991E-002     6.6486352237490101
   7.8049999999999981E-002     6.5805877522497038
   7.8899999999999998E-002     6.4607057669109702
   7.9749999999999988E-002     6.2900600577522754
   8.0600000000000005E-002     6.0696850604266359
   8.1449999999999995E-002     5.8013857959345936
   8.2299999999999984E-002     5.4871038665535190
   8.3150000000000002E-002     5.1297355440592760
   8.3999999999999991E-002     4.7323246504325249
   8.4849999999999981E-002     4.2985789817432165
   8.5699999999999998E-002     3.8327018101293429
   8.6549999999999988E-002     3.3393989808222453
   8.7400000000000005E-002     2.8229548145080168
   8.8249999999999995E-002     2.2887861499716249
   8.9099999999999985E-002     1.7414312072963702
   8.9950000000000002E-002     1.1863747305523979
   9.0799999999999992E-002    0.62845852539907032
   9.1649999999999981E-002     7.2833740457584284E-002
   9.2499999999999999E-002   -0.47580577576141492
   9.3349999999999989E-002    -1.0127228981182248
   9.4200000000000006E-002    -1.5321621289922553
   9.5049999999999996E-002    -2.0305082035481554
   9.5899999999999985E-002    -2.5029311505967788
   9.6750000000000003E-002    -2.9464210530017869
   9.7599999999999992E-002    -3.3565257502637991
   9.8449999999999982E-002    -3.7308846474549990
   9.9299999999999999E-002    -4.0669110621935669
  0.10014999999999999         -4.3629703906610739
  0.10099999999999998         -4.6170461211932610
  0.10185000000000000         -4.8280326115026790
  0.10269999999999999         -4.9954204080386200
  0.10355000000000000         -5.1190684280725618
  0.10439999999999999         -5.1991605714860665
  0.10524999999999998         -5.2360793400770032
  0.10610000000000000         -5.2312743346503972
  0.10694999999999999         -5.1863845123569812
  0.10779999999999998         -5.1032518781039711
  0.10865000000000000         -4.9840926609697860
  0.10949999999999999         -4.8314571438476284
  0.11035000000000000         -4.6482392971722257
  0.11119999999999999         -4.4372508788638969
  0.11204999999999998         -4.2019502701978437
  0.11290000000000000         -3.9452963511228361
  0.11374999999999999         -3.6708537886568289
  0.11459999999999998         -3.3818307936947822
  0.11545000000000000         -3.0816778234468880
  0.11629999999999999         -2.7737617057301138
  0.11715000000000000         -2.4611941685373786
  0.11799999999999999         -2.1470441164598624
  0.11884999999999998         -1.8343249645493429
  0.11970000000000000         -1.5255595262294188
  0.12054999999999999         -1.2235182190291667
  0.12139999999999998        -0.93050470301745136
  0.12225000000000000        -0.64869897422964384
  0.12309999999999999        -0.38010824919317049
  0.12395000000000000        -0.12626098286919490
  0.12479999999999999         0.11136740355474639
  0.12564999999999998         0.33176007952280029
  0.12650000000000000         0.53420411031320802
  0.12734999999999999         0.71820508857153009
  0.12819999999999998         0.88348033515779245
  0.12905000000000000          1.0299048350457425
  0.12989999999999999          1.1575426869239238
  0.13074999999999998          1.2664464540270219
  0.13159999999999999          1.3570761282839241
  0.13245000000000001          1.4298867128168411
  0.13329999999999997          1.4856835697705686
  0.13414999999999999          1.5254410750482621
  0.13500000000000001          1.5502158336590388
  0.13584999999999997          1.5611000746571471
  0.13669999999999999          1.5593588544983599
  0.13755000000000001          1.5461488377142036
  0.13839999999999997          1.5225469357553045
  0.13924999999999998          1.4896306890689368
  0.14010000000000000          1.4483158055493297
  0.14094999999999996          1.3996705026913847
  0.14179999999999998          1.3448070956334219
  0.14265000000000000          1.2849335325816365
  0.14350000000000002          1.2212356002281008
  0.14434999999999998          1.1547911659226517
  0.14520000000000000          1.0864789129623962
  0.14605000000000001          1.0171549708911891
  0.14689999999999998         0.94741721735481632
  0.14774999999999999         0.87780991347313331
  0.14860000000000001         0.80884630648376810
  0.14944999999999997         0.74085665433464243
  0.15029999999999999         0.67434440759180148
  0.15115000000000001         0.60972009530614191
  0.15199999999999997         0.54743184998718408
  0.15284999999999999         0.48794007074204754
  0.15370000000000000         0.43153307794290663
  0.15454999999999997         0.37827949162171626
  0.15539999999999998         0.32825573992126944
  0.15625000000000000         0.28135549405033122
  0.15709999999999996         0.23757379029856085
  0.15794999999999998         0.19685402137085509
  0.15880000000000000         0.15919928487174448
  0.15965000000000001         0.12466345890490237
  0.16049999999999998          9.3249515352149676E-002
  0.16134999999999999          6.4955776082737227E-002
  0.16220000000000001          3.9578841187857976E-002
  0.16304999999999997          1.6990787031228770E-002
  0.16389999999999999         -2.9762904282979834E-003
  0.16475000000000001         -2.0547093179814270E-002
  0.16559999999999997         -3.5783853911314348E-002
  0.16644999999999999         -4.8734910737521474E-002
  0.16730000000000000         -5.9414242473558219E-002
  0.16814999999999997         -6.7828635432207574E-002
  0.16899999999999998         -7.4078172489190575E-002
  0.16985000000000000         -7.8343310992901732E-002
  0.17069999999999996         -8.0973190610663687E-002
  0.17154999999999998         -8.2347572128496777E-002
  0.17240000000000000         -8.2849794836838284E-002
  0.17325000000000002         -8.2720106056480017E-002
  0.17409999999999998         -8.2088750127341181E-002
  0.17494999999999999         -8.0863810514786513E-002
  0.17580000000000001         -7.8883427778133577E-002
  0.17664999999999997         -7.5997732760498357E-002
  0.17749999999999999         -7.2154128911725984E-002
  0.17835000000000001         -6.7545696018334420E-002
  0.17919999999999997         -6.2466290077839139E-002
  0.18004999999999999         -5.7346365570780329E-002
  0.18090000000000001         -5.2620031921874248E-002
  0.18174999999999997         -4.8646170410836242E-002
  0.18259999999999998         -4.5533034640812188E-002
  0.18345000000000000         -4.3228152444299929E-002
  0.18429999999999996         -4.1452345585194977E-002
  0.18514999999999998         -3.9874868818397191E-002
  0.18600000000000000         -3.8269531754566453E-002
  0.18684999999999996         -3.6556796518178607E-002
  0.18769999999999998         -3.4821110818790323E-002
  0.18855000000000000         -3.3289506556538700E-002
  0.18940000000000001         -3.2249451989322546E-002
  0.19024999999999997         -3.1907499546820539E-002
  0.19109999999999999         -3.2315221564573865E-002
  0.19195000000000001         -3.3338329518192968E-002
  0.19279999999999997         -3.4709338750628524E-002
  0.19364999999999999         -3.6127892233568749E-002
  0.19450000000000001         -3.7294374111389007E-002
  0.19534999999999997         -3.8045881783123077E-002
  0.19619999999999999         -3.8371078003348762E-002
  0.19705000000000000         -3.8334319940940463E-002
  0.19789999999999996         -3.8084318209259990E-002
  0.19874999999999998         -3.7716956030914912E-002
  0.19960000000000000         -3.7265386725382731E-002
  0.20044999999999996         -3.6648768517460933E-002
  0.20129999999999998         -3.5764129434486085E-002
  0.20215000000000000         -3.4492723044884301E-002
  0.20300000000000001         -3.2810129498395013E-002
  0.20384999999999998         -3.0769407256007120E-002
  0.20469999999999999         -2.8493840210597258E-002
  0.20555000000000001         -2.6132915256085788E-002
  0.20639999999999997         -2.3793718977264820E-002
  0.20724999999999999         -2.1517168221694631E-002
  0.20810000000000001         -1.9237815140500963E-002
  0.20894999999999997         -1.6853670728269182E-002
  0.20979999999999999         -1.4262701446894444E-002
  0.21065000000000000         -1.1463138684022635E-002
  0.21149999999999997         -8.5575592406482506E-003
  0.21234999999999998         -5.7682510467468723E-003
  0.21320000000000000         -3.3747881770120535E-003
  0.21404999999999996         -1.6036781692080756E-003
  0.21489999999999998         -5.7296035398485647E-004
  0.21575000000000000         -2.6058697843590623E-004
  0.21659999999999996         -4.6638979835381990E-004
  0.21744999999999998         -9.2450000560726788E-004
  0.21829999999999999         -1.3692462886766776E-003
  0.21915000000000001         -1.6254368289294785E-003
  0.21999999999999997         -1.6771205445342159E-003
  0.22084999999999999         -1.6355941278385726E-003
  0.22170000000000001         -1.7118556791899573E-003
  0.22254999999999997         -2.1057823648688457E-003
  0.22339999999999999         -2.9302702494581456E-003
  0.22425000000000000         -4.1453668907235940E-003
  0.22509999999999997         -5.5774347783550341E-003
  0.22594999999999998         -6.9527723513694182E-003
  0.22680000000000000         -7.9976049703443259E-003
  0.22764999999999996         -8.4996574298675208E-003
  0.22849999999999998         -8.3904567183300787E-003
  0.22935000000000000         -7.7392403595684216E-003
  0.23019999999999996         -6.7041553307674853E-003
  0.23104999999999998         -5.4910819460317383E-003
  0.23190000000000000         -4.2606409251501227E-003
  0.23275000000000001         -3.0927376207246261E-003
  0.23359999999999997         -1.9917056039810131E-003
  0.23444999999999999         -8.7497230581055864E-004
  0.23530000000000001          3.3759835492562116E-004
  0.23614999999999997          1.7164842591250852E-003
  0.23699999999999999          3.2735228309285578E-003
  0.23785000000000001          4.9543351806049718E-003
  0.23869999999999997          6.6751656482097865E-003
  0.23954999999999999          8.3317332976759317E-003
  0.24040000000000000          9.8330002840529458E-003
  0.24124999999999996          1.1090543879547450E-002
  0.24209999999999998          1.2039590649754676E-002
  0.24295000000000000          1.2617142714560471E-002
  0.24379999999999996          1.2765661751748205E-002
  0.24464999999999998          1.2433661551483696E-002
  0.24550000000000000          1.1595548971508459E-002
  0.24634999999999996          1.0284383538290379E-002
  0.24719999999999998          8.5888871989342613E-003
  0.24804999999999999          6.6557212171185452E-003
  0.24890000000000001          4.6520972327607230E-003
  0.24974999999999997          2.7192978608109081E-003
  0.25059999999999999          9.2680239298718870E-004
  0.25145000000000001         -7.4359136283405278E-004
  0.25229999999999997         -2.4069889348469990E-003
  0.25314999999999999         -4.2019074985297743E-003
  0.25400000000000000         -6.2513554749444016E-003
  0.25484999999999997         -8.5759378674832663E-003
  0.25569999999999998         -1.1060365023668721E-002
  0.25655000000000000         -1.3470524489567034E-002
  0.25739999999999996         -1.5502142922306218E-002
  0.25824999999999998         -1.6864228416226774E-002
  0.25910000000000000         -1.7383058108679794E-002
  0.25994999999999996         -1.7049173243275813E-002
  0.26079999999999998         -1.6022050542069899E-002
  0.26164999999999999         -1.4593203157964630E-002
  0.26249999999999996         -1.3082687697864942E-002
  0.26334999999999997         -1.1746143538611323E-002
  0.26419999999999999         -1.0690105009929929E-002
  0.26505000000000001         -9.8521360155938258E-003
  0.26589999999999997         -9.0382173578753902E-003
  0.26674999999999999         -7.9871417342268283E-003
  0.26760000000000000         -6.4933765960515999E-003
  0.26844999999999997         -4.4712542442657526E-003
  0.26929999999999998         -2.0144468441224469E-003
  0.27015000000000000          6.4908871456938254E-004
  0.27099999999999996          3.1971845844031488E-003
  0.27184999999999998          5.3130728471134777E-003
  0.27270000000000000          6.7731496339658668E-003
  0.27354999999999996          7.4953181579580207E-003
  0.27439999999999998          7.5419943573590258E-003
  0.27524999999999999          7.0848812735340248E-003
  0.27609999999999996          6.3502687313859545E-003
  0.27694999999999997          5.5365837948055064E-003
  0.27779999999999999          4.7805966266623772E-003
  0.27865000000000001          4.1246433576661292E-003
  0.27949999999999997          3.5267186110202547E-003
  0.28034999999999999          2.8923007426937099E-003
  0.28120000000000001          2.1246581831428266E-003
  0.28204999999999997          1.1379650431012104E-003
  0.28289999999999998         -1.0269269142131130E-004
  0.28375000000000000         -1.5673344661914716E-003
  0.28459999999999996         -3.1803664146776954E-003
  0.28544999999999998         -4.8169972631754918E-003
  0.28630000000000000         -6.3203816470176442E-003
  0.28714999999999996         -7.5276345815693604E-003
  0.28799999999999998         -8.2902750185311312E-003
  0.28885000000000000         -8.5041038106909630E-003
  0.28969999999999996         -8.1337120315938434E-003
  0.29054999999999997         -7.2271882308762147E-003
  0.29139999999999999         -5.9127144029461924E-003
  0.29224999999999995         -4.3722393908502957E-003
  0.29309999999999997         -2.7978754500306595E-003
  0.29394999999999999         -1.3340773655949134E-003
  0.29480000000000001         -4.2836672033419562E-005
  0.29564999999999997          1.1215667488589493E-003
  0.29649999999999999          2.2833607355422490E-003
  0.29735000000000000          3.6075877728970487E-003
  0.29819999999999997          5.2214939131225010E-003
  0.29904999999999998          7.1517245041857851E-003
  0.29990000000000000          9.2976092483227739E-003
  0.30074999999999996          1.1440958248140603E-002
  0.30159999999999998          1.3292359580650418E-002
  0.30245000000000000          1.4580824188752391E-002
  0.30329999999999996          1.5127901810942554E-002
  0.30414999999999998          1.4900790718532260E-002
  0.30499999999999999          1.4014074223496660E-002
  0.30584999999999996          1.2696091689712837E-002
  0.30669999999999997          1.1200065653744382E-002
  0.30754999999999999          9.7235502568631949E-003
  0.30840000000000001          8.3528476149043879E-003
  0.30924999999999997          7.0448858556022946E-003
  0.31009999999999999          5.6626621219061056E-003
  0.31095000000000000          4.0353172854336195E-003
  0.31179999999999997          2.0425278007707884E-003
  0.31264999999999998         -3.4203007782774740E-004
  0.31350000000000000         -3.0275873710813375E-003
  0.31434999999999996         -5.8393231855069080E-003
  0.31519999999999998         -8.5686100848413951E-003
  0.31605000000000000         -1.1043873401433618E-002
  0.31689999999999996         -1.3164503927545536E-002
  0.31774999999999998         -1.4918620496365737E-002
  0.31859999999999999         -1.6356629194578910E-002
  0.31944999999999996         -1.7544821294488432E-002
  0.32029999999999997         -1.8525440977212978E-002
  0.32114999999999999         -1.9295948961851338E-002
  0.32199999999999995         -1.9814598297907538E-002
  0.32284999999999997         -2.0037872953501977E-002
  0.32369999999999999         -1.9958567313315238E-002
  0.32455000000000001         -1.9628333623844474E-002
  0.32539999999999997         -1.9169022588223589E-002
  0.32624999999999998         -1.8735231605209703E-002
  0.32710000000000000         -1.8469005573638106E-002
  0.32794999999999996         -1.8448022162252352E-002
  0.32879999999999998         -1.8666968587950937E-002
  0.32965000000000000         -1.9041164373656681E-002
  0.33049999999999996         -1.9460442275942388E-002
  0.33134999999999998         -1.9845054540441949E-002
  0.33220000000000000         -2.0204601862230710E-002
  0.33304999999999996         -2.0654119506464438E-002
  0.33389999999999997         -2.1393849661137127E-002
  0.33474999999999999         -2.2644115805003032E-002
  0.33559999999999995         -2.4575375213402119E-002
  0.33644999999999997         -2.7239973414685502E-002
  0.33729999999999999         -3.0541706491024688E-002
  0.33815000000000001         -3.4264336051676517E-002
  0.33899999999999997         -3.8128786267092235E-002
  0.33984999999999999         -4.1879808138194051E-002
  0.34070000000000000         -4.5363282208933937E-002
  0.34154999999999996         -4.8558122100917971E-002
  0.34239999999999998         -5.1554103880761121E-002
  0.34325000000000000         -5.4502242931208547E-002
  0.34409999999999996         -5.7540134847331191E-002
  0.34494999999999998         -6.0701620247007329E-002
  0.34580000000000000         -6.3908704500372018E-002
  0.34664999999999996         -6.6963636356341241E-002
  0.34749999999999998         -6.9603511012372943E-002
  0.34834999999999999         -7.1563331840506408E-002
  0.34919999999999995         -7.2638089903920317E-002
  0.35004999999999997         -7.2720733702468246E-002
  0.35089999999999999         -7.1788963944750803E-002
  0.35174999999999995         -6.9882429636693527E-002
  0.35259999999999997         -6.7065548637010558E-002
  0.35344999999999999         -6.3384982970511580E-002
  0.35430000000000000         -5.8843925233993538E-002
  0.35514999999999997         -5.3432286203800541E-002
  0.35599999999999998         -4.7130265141006537E-002
  0.35685000000000000         -3.9951101794185796E-002
  0.35769999999999996         -3.1877132720636046E-002