 -0.12000000000000000          0.0000000000000000
 -0.11914999999999999          4.7642584192372357E-008
 -0.11830000000000000          2.7719119228934264E-007
 -0.11745000000000000          7.6822817945358895E-007
 -0.11660000000000000          1.2966906044148653E-006
 -0.11574999999999999          1.2410934525030946E-006
 -0.11490000000000000         -1.8952607715502195E-007
 -0.11405000000000000         -3.4263659949871606E-006
 -0.11320000000000000         -7.9525619623727231E-006
 -0.11234999999999999         -1.2025132131201201E-005
 -0.11150000000000000         -1.3013543495584032E-005
 -0.11065000000000000         -8.4024291605309331E-006
 -0.10979999999999999          2.8480662449579090E-006
 -0.10894999999999999          1.9171542178014544E-005
 -0.10810000000000000          3.6128503462649646E-005
 -0.10725000000000000          4.7379288734338998E-005
 -0.10639999999999999          4.6776636420025851E-005
 -0.10554999999999999          3.0916018174100923E-005
 -0.10470000000000000          1.1394785847830230E-006
 -0.10385000000000000         -3.5966263010020935E-005
 -0.10299999999999999         -7.0060669900910762E-005
 -0.10214999999999999         -9.0254104428962500E-005
 -0.10130000000000000         -8.8997697120202170E-005
 -0.10045000000000000         -6.5205244467929512E-005
  -9.9599999999999994E-002    -2.5278597775766320E-005
  -9.8750000000000004E-002     1.8605931736498233E-005
  -9.7900000000000001E-002     5.2569940166481835E-005
  -9.7049999999999997E-002     6.6105103124546613E-005
  -9.6199999999999994E-002     5.6261050685675948E-005
  -9.5349999999999990E-002     2.9240102298035997E-005
  -9.4500000000000001E-002    -1.4406838678333708E-006
  -9.3649999999999997E-002    -1.9788759255278760E-005
  -9.2799999999999994E-002    -1.3545410873467061E-005
  -9.1950000000000004E-002     2.0515836920255350E-005
  -9.1100000000000000E-002     7.4296421585839652E-005
  -9.0249999999999997E-002     1.3016924945617880E-004
  -8.9399999999999993E-002     1.6647705776872345E-004
  -8.8549999999999990E-002     1.6493434024881151E-004
  -8.7700000000000000E-002     1.1733253918231900E-004
  -8.6849999999999997E-002     2.9104069193906319E-005
  -8.5999999999999993E-002    -8.1645785149493240E-005
  -8.5150000000000003E-002    -1.8942382825859268E-004
  -8.4300000000000000E-002    -2.6917755751269806E-004
  -8.3449999999999996E-002    -3.0395172123536885E-004
  -8.2600000000000007E-002    -2.8972182684791571E-004
  -8.1749999999999989E-002    -2.3577282248380839E-004
  -8.0900000000000000E-002    -1.6061616299017719E-004
  -8.0049999999999996E-002    -8.5023747365427400E-005
  -7.9199999999999993E-002    -2.4807050974811474E-005
  -7.8350000000000003E-002     1.4068014014842910E-005
  -7.7499999999999999E-002     3.6330350484929998E-005
  -7.6649999999999996E-002     5.4078686758499101E-005
  -7.5800000000000006E-002     8.0712874549052774E-005
  -7.4949999999999989E-002     1.2450539320709252E-004
  -7.4099999999999999E-002     1.8430282695264483E-004
  -7.3249999999999996E-002     2.4903473058718025E-004
  -7.2399999999999992E-002     3.0108790550437565E-004
  -7.1550000000000002E-002     3.2240727324888031E-004
  -7.0699999999999999E-002     3.0099717495867787E-004
  -6.9849999999999995E-002     2.3549857631773689E-004
  -6.9000000000000006E-002     1.3618747349867567E-004
  -6.8149999999999988E-002     2.2105888783084384E-005
  -6.7299999999999999E-002    -8.4687425160702364E-005
  -6.6449999999999995E-002    -1.6570551019821892E-004
  -6.5599999999999992E-002    -2.1147709453674907E-004
  -6.4750000000000002E-002    -2.2399247225758200E-004
  -6.3899999999999998E-002    -2.1559949385769982E-004
  -6.3049999999999995E-002    -2.0487340172944556E-004
  -6.2199999999999998E-002    -2.1095592565794369E-004
  -6.1350000000000002E-002    -2.4775906797811029E-004
  -6.0499999999999998E-002    -3.1998861501585920E-004
  -5.9650000000000002E-002    -4.2191861857996874E-004
  -5.8799999999999998E-002    -5.3865167739662741E-004
  -5.7950000000000002E-002    -6.5028588064293391E-004
  -5.7099999999999998E-002    -7.3726429321107874E-004
  -5.6249999999999994E-002    -7.8604002526040499E-004
  -5.5400000000000005E-002    -7.9359293059419987E-004
  -5.4550000000000001E-002    -7.6964596802060737E-004
  -5.3699999999999998E-002    -7.3621003555395621E-004
  -5.2849999999999994E-002    -7.2358646645177967E-004
  -5.2000000000000005E-002    -7.6432682956652871E-004
  -5.1150000000000001E-002    -8.8452745732022474E-004
  -5.0299999999999997E-002    -1.0973182173887530E-003
  -4.9449999999999994E-002    -1.3977215352435602E-003
  -4.8600000000000004E-002    -1.7627366252185054E-003
  -4.7750000000000001E-002    -2.1567622929836556E-003
  -4.6899999999999997E-002    -2.5420600036566614E-003
  -4.6049999999999994E-002    -2.8908033215935482E-003
  -4.5200000000000004E-002    -3.1964817853800329E-003
  -4.4350000000000001E-002    -3.4811472312130443E-003
  -4.3499999999999997E-002    -3.7946369230734286E-003
  -4.2649999999999993E-002    -4.2029465055088066E-003
  -4.1800000000000004E-002    -4.7744488313831608E-003
  -4.0950000000000000E-002    -5.5619561067241632E-003
  -4.0099999999999997E-002    -6.5870551454165508E-003
  -3.9249999999999993E-002    -7.8371077035691190E-003
  -3.8400000000000004E-002    -9.2694015256836928E-003
  -3.7550000000000000E-002    -1.0828581703169041E-002
  -3.6699999999999997E-002    -1.2467181816473822E-002
  -3.5850000000000007E-002    -1.4169598664974765E-002
  -3.5000000000000003E-002    -1.5964595812553214E-002
  -3.4150000000000000E-002    -1.7925281305092997E-002
  -3.3299999999999996E-002    -2.0158128492685012E-002
  -3.2450000000000007E-002    -2.2780339879301149E-002
  -3.1600000000000003E-002    -2.5893994904764215E-002
  -3.0750000000000000E-002    -2.9567585700436060E-002
  -2.9899999999999996E-002    -3.3828974840613264E-002
  -2.9050000000000006E-002    -3.8665575258757037E-002
  -2.8200000000000003E-002    -4.4046635600990265E-002
  -2.7349999999999999E-002    -4.9952403446816868E-002
  -2.6499999999999996E-002    -5.6391116904695039E-002
  -2.5650000000000006E-002    -6.3414292248504672E-002
  -2.4800000000000003E-002    -7.1120554347000958E-002
  -2.3949999999999999E-002    -7.9641166302720987E-002
  -2.3099999999999996E-002    -8.9123967927209058E-002
  -2.2250000000000006E-002    -9.9702059370707363E-002
  -2.1400000000000002E-002   -0.11148274319236817
  -2.0549999999999999E-002   -0.12453822250810337
  -1.9699999999999995E-002   -0.13890846161717915
  -1.8850000000000006E-002   -0.15461287918291433
  -1.8000000000000002E-002   -0.17166854142454779
  -1.7149999999999999E-002   -0.19010591668522381
  -1.6299999999999995E-002   -0.20997596984334616
  -1.5450000000000005E-002   -0.23133814216058787
  -1.4600000000000002E-002   -0.25428200983556615
  -1.3749999999999998E-002   -0.27887644282252710
  -1.2899999999999995E-002   -0.30518609962519405
  -1.2050000000000005E-002   -0.33324616357441172
  -1.1200000000000002E-002   -0.36304354929147326
  -1.0349999999999998E-002   -0.39453075361294510
  -9.5000000000000084E-003   -0.42762260708960537
  -8.6500000000000049E-003   -0.46219932560822297
  -7.8000000000000014E-003   -0.49809120697510401
  -6.9499999999999978E-003   -0.53512052813824962
  -6.1000000000000082E-003   -0.57305449101664441
  -5.2500000000000047E-003   -0.61164923198846943
  -4.4000000000000011E-003   -0.65060834998296468
  -3.5499999999999976E-003   -0.68959170077816390
  -2.7000000000000079E-003   -0.72822308484297726
  -1.8500000000000044E-003   -0.76608159442182788
  -1.0000000000000009E-003   -0.80270505568715766
  -1.4999999999999736E-004   -0.83753785246667878
   6.9999999999999230E-004   -0.86999272844247955
   1.5499999999999958E-003   -0.89939233933409846
   2.3999999999999994E-003   -0.92500159023892248
   3.2500000000000029E-003   -0.94596764579395398
   4.0999999999999925E-003   -0.96145094889062288
   4.9499999999999961E-003   -0.97053818182529594
   5.7999999999999996E-003   -0.97234526550167977
   6.6499999999999893E-003   -0.96593721851422076
   7.5000000000000067E-003   -0.95044438716180490
   8.3499999999999963E-003   -0.92498028107171137
   9.1999999999999860E-003   -0.88864845346039922
   1.0050000000000003E-002   -0.84063948625681673
   1.0899999999999993E-002   -0.78002747018625429
   1.1750000000000010E-002   -0.70596903961083879
   1.2600000000000000E-002   -0.61757847494956430
   1.3449999999999990E-002   -0.51415786386855644
   1.4300000000000007E-002   -0.39509117598647575
   1.5149999999999997E-002   -0.25985143117498283
   1.5999999999999986E-002   -0.10819660968112188
   1.6850000000000004E-002     6.0010336601561007E-002
   1.7699999999999994E-002    0.24467391291041943
   1.8549999999999983E-002    0.44554787777366761
   1.9400000000000001E-002    0.66218849879426633
   2.0249999999999990E-002    0.89397445921034713
   2.1100000000000008E-002     1.1401225347974879
   2.1949999999999997E-002     1.3995055782301016
   2.2799999999999987E-002     1.6708999400196207
   2.3650000000000004E-002     1.9526460727748804
   2.4499999999999994E-002     2.2428542194880778
   2.5349999999999984E-002     2.5394169626129139
   2.6200000000000001E-002     2.8398059342425848
   2.7049999999999991E-002     3.1415020064032086
   2.7900000000000008E-002     3.4415622865471205
   2.8749999999999998E-002     3.7369085946872067
   2.9599999999999987E-002     4.0242984206318706
   3.0450000000000005E-002     4.3003619268471809
   3.1299999999999994E-002     4.5615907466203636
   3.2149999999999984E-002     4.8044611393071621
   3.3000000000000002E-002     5.0252206948106810
   3.3849999999999991E-002     5.2202164169695298
   3.4700000000000009E-002     5.3858573711979441
   3.5549999999999998E-002     5.5186839580580100
   3.6399999999999988E-002     5.6151229253198007
   3.7250000000000005E-002     5.6720841362040257
   3.8099999999999995E-002     5.6866757553383014
   3.8949999999999985E-002     5.6560942330017792
   3.9800000000000002E-002     5.5781195198748286
   4.0649999999999992E-002     5.4508101220939054
   4.1500000000000009E-002     5.2726127367216300
   4.2349999999999999E-002     5.0425046696130620
   4.3199999999999988E-002     4.7600488509397412
   4.4050000000000006E-002     4.4252540696933051
   4.4899999999999995E-002     4.0387855179818777
   4.5749999999999985E-002     3.6018582796997336
   4.6600000000000003E-002     3.1162799418461815
   4.7449999999999992E-002     2.5844662574315147
   4.8299999999999982E-002     2.0094312194685937
   4.9149999999999999E-002     1.3947309110728665
   4.9999999999999989E-002    0.74449078403649682
   5.0850000000000006E-002     6.3432361025173412E-002
   5.1699999999999996E-002   -0.64322451439789263
   5.2549999999999986E-002    -1.3697781020380995
   5.3400000000000003E-002    -2.1100490117930550
   5.4249999999999993E-002    -2.8577073806049018
   5.5099999999999982E-002    -3.6058733891589272
   5.5950000000000000E-002    -4.3477730814659159
   5.6799999999999989E-002    -5.0763853592074009
   5.7650000000000007E-002    -5.7846236661738448
   5.8499999999999996E-002    -6.4654885011253622
   5.9349999999999986E-002    -7.1120584738259494
   6.0200000000000004E-002    -7.7177210266147220
   6.1049999999999993E-002    -8.2759436060016132
   6.1899999999999983E-002    -8.7807200326580848
   6.2750000000000000E-002    -9.2264567958328314
   6.3599999999999990E-002    -9.6081657169666279
   6.4450000000000007E-002    -9.9213248702483359
   6.5299999999999997E-002    -10.162154190913725
   6.6149999999999987E-002    -10.327476667186001
   6.7000000000000004E-002    -10.415157418425931
   6.7849999999999994E-002    -10.423585939770176
   6.8699999999999983E-002    -10.351893350889002
   6.9550000000000001E-002    -10.200247310492399
   7.0399999999999990E-002    -9.9695968993675876
   7.1249999999999980E-002    -9.6614610035499329
   7.2099999999999997E-002    -9.2786125534891344
   7.2949999999999987E-002    -8.8242370601628064
   7.3800000000000004E-002    -8.3024891327946531
   7.4649999999999994E-002    -7.7179639070817476
   7.5499999999999984E-002    -7.0762663449630843
   7.6350000000000001E-002    -6.3832387748093451
   7.7199999999999991E-002    -5.6454781094664366
   7.8049999999999981E-002    -4.8696246616970180
   7.8899999999999998E-002    -4.0630357381930224
   7.9749999999999988E-002    -3.2329625664161084
   8.0600000000000005E-002    -2.3870787527225383
   8.1449999999999995E-002    -1.5330617563189539
   8.2299999999999984E-002   -0.67865290641339804
   8.3150000000000002E-002    0.16852656206160047
   8.3999999999999991E-002     1.0009187729085207
   8.4849999999999981E-002     1.8114442372922450
   8.5699999999999998E-002     2.5933524851922254
   8.6549999999999988E-002     3.3403129594280907
   8.7400000000000005E-002     4.0465038336094228
   8.8249999999999995E-002     4.7066062181382007
   8.9099999999999985E-002     5.3159600702033627
   8.9950000000000002E-002     5.8705869229899736
   9.0799999999999992E-002     6.3667113318847788
   9.1649999999999981E-002     6.8016808580992203
   9.2499999999999999E-002     7.1732319022174362
   9.3349999999999989E-002     7.4798058713627729
   9.4200000000000006E-002     7.7209084480570507
   9.5049999999999996E-002     7.8963764044428695
   9.5899999999999985E-002     8.0068883189681941
   9.6750000000000003E-002     8.0539260486462538
   9.7599999999999992E-002     8.0391577089146349
   9.8449999999999982E-002     7.9651917186275574
   9.9299999999999999E-002     7.8348056043514660
  0.10014999999999999          7.6512428690476977
  0.10099999999999998          7.4183013259925294
  0.10185000000000000          7.1399962793122125
  0.10269999999999999          6.8206860196759420
  0.10355000000000000          6.4649408036841702
  0.10439999999999999          6.0775583135847038
  0.10524999999999998          5.6633420131916070
  0.10610000000000000          5.2273015085090817
  0.10694999999999999          4.7742223760460760
  0.10779999999999998          4.3089874665546803
  0.10865000000000000          3.8361013026748445
  0.10949999999999999          3.3600693289101211
  0.11035000000000000          2.8851581952607606
  0.11119999999999999          2.4154548083505207
  0.11204999999999998          1.9548317411723581
  0.11290000000000000          1.5067456602763249
  0.11374999999999999          1.0744303389097436
  0.11459999999999998         0.66065757203947462
  0.11545000000000000         0.26782147356615488
  0.11629999999999999        -0.10199552495190663
  0.11715000000000000        -0.44710309710315282
  0.11799999999999999        -0.76613043141936699
  0.11884999999999998         -1.0580226729943516
  0.11970000000000000         -1.3220594063322701
  0.12054999999999999         -1.5577209577835975
  0.12139999999999998         -1.7649240826386361
  0.12225000000000000         -1.9438527488817261
  0.12309999999999999         -2.0950233242051257
  0.12395000000000000         -2.2191800305802638
  0.12479999999999999         -2.3173259150397221
  0.12564999999999998         -2.3905990190685480
  0.12650000000000000         -2.4403166192741943
  0.12734999999999999         -2.4678767818295886
  0.12819999999999998         -2.4747464210623664
  0.12905000000000000         -2.4624697112707170
  0.12989999999999999         -2.4326491351391408
  0.13074999999999998         -2.3869649894727032
  0.13159999999999999         -2.3271154549063513
  0.13245000000000001         -2.2549011593849331
  0.13329999999999997         -2.1720490836963484
  0.13414999999999999         -2.0802899806868340
  0.13500000000000001         -1.9812392216586208
  0.13584999999999997         -1.8764796950212184
  0.13669999999999999         -1.7674238883321216
  0.13755000000000001         -1.6553914262407992
  0.13839999999999997         -1.5416241007684426
  0.13924999999999998         -1.4272579800976672
  0.14010000000000000         -1.3133434308208203
  0.14094999999999996         -1.2008706297072833
  0.14179999999999998         -1.0907121841382501
  0.14265000000000000        -0.98361482105740905
  0.14350000000000002        -0.88022970681691193
  0.14434999999999998        -0.78110062276279024
  0.14520000000000000        -0.68663126875895109
  0.14605000000000001        -0.59718582349155491
  0.14689999999999998        -0.51304264241669573
  0.14774999999999999        -0.43441294746123876
  0.14860000000000001        -0.36145283747539469
  0.14944999999999997        -0.29420795867777910
  0.15029999999999999        -0.23268319982724167
  0.15115000000000001        -0.17674468560245696
  0.15199999999999997        -0.12621040055299784
  0.15284999999999999         -8.0836236557538035E-002
  0.15370000000000000         -4.0383633114721651E-002
  0.15454999999999997         -4.6055982860450330E-003
  0.15539999999999998          2.6722517590489121E-002
  0.15625000000000000          5.3816257001210885E-002
  0.15709999999999996          7.6845473587777047E-002
  0.15794999999999998          9.6053459702309385E-002
  0.15880000000000000         0.11168495111062626
  0.15965000000000001         0.12406003467837354
  0.16049999999999998         0.13354570753812825
  0.16134999999999999         0.14053577226317812
  0.16220000000000001         0.14542357712319950
  0.16304999999999997         0.14851771337004832
  0.16389999999999999         0.15009080490249166
  0.16475000000000001         0.15029890805974766
  0.16559999999999997         0.14924032762522860
  0.16644999999999999         0.14700968033789583
  0.16730000000000000         0.14369624636675959
  0.16814999999999997         0.13944065004512265
  0.16899999999999998         0.13444069533526229
  0.16985000000000000         0.12892772557264054
  0.17069999999999996         0.12314895633698410
  0.17154999999999998         0.11731034300246637
  0.17240000000000000         0.11156181251101249
  0.17325000000000002         0.10596723862350255
  0.17409999999999998         0.10052667554157929
  0.17494999999999999          9.5177103600409471E-002
  0.17580000000000001          8.9861705241573622E-002
  0.17664999999999997          8.4555167405633361E-002
  0.17749999999999999          7.9290746209477375E-002
  0.17835000000000001          7.4125223391244541E-002
  0.17919999999999997          6.9166435895326284E-002
  0.18004999999999999          6.4503494896193447E-002
  0.18090000000000001          6.0210702595935923E-002
  0.18174999999999997          5.6297868301469607E-002
  0.18259999999999998          5.2741271736314342E-002
  0.18345000000000000          4.9480784197555507E-002
  0.18429999999999996          4.6441330212767563E-002
  0.18514999999999998          4.3563617717312222E-002
  0.18600000000000000          4.0823477351355553E-002
  0.18684999999999996          3.8215906382915610E-002
  0.18769999999999998          3.5770518691341839E-002
  0.18855000000000000          3.3517120604542872E-002
  0.18940000000000001          3.1472278932177293E-002
  0.19024999999999997          2.9638921085086929E-002
  0.19109999999999999          2.8000734169744433E-002
  0.19195000000000001          2.6524522953209308E-002
  0.19279999999999997          2.5188425760562013E-002
  0.19364999999999999          2.3971775883753408E-002
  0.19450000000000001          2.2876605567681660E-002
  0.19534999999999997          2.1893229342216453E-002
  0.19619999999999999          2.1034678685628382E-002
  0.19705000000000000          2.0288976575174859E-002
  0.19789999999999996          1.9638171211465095E-002
  0.19874999999999998          1.9054262191520933E-002
  0.19960000000000000          1.8502713800797821E-002
  0.20044999999999996          1.7959096723191355E-002
  0.20129999999999998          1.7406258877722423E-002
  0.20215000000000000          1.6854841723512561E-002
  0.20300000000000001          1.6318704342773726E-002
  0.20384999999999998          1.5820437217584200E-002
  0.20469999999999999          1.5371380870250273E-002
  0.20555000000000001          1.4961929768738570E-002
  0.20639999999999997          1.4572887768725042E-002
  0.20724999999999999          1.4168031712276211E-002
  0.20810000000000001          1.3714114506852218E-002
  0.20894999999999997          1.3195562712363280E-002
  0.20979999999999999          1.2614124030219104E-002
  0.21065000000000000          1.1996118926833816E-002
  0.21149999999999997          1.1371920147446864E-002
  0.21234999999999998          1.0766828952475500E-002
  0.21320000000000000          1.0195417257601940E-002
  0.21404999999999996          9.6467161179984717E-003
  0.21489999999999998          9.0886607541555264E-003
  0.21575000000000000          8.4863022081023611E-003
  0.21659999999999996          7.8140662974326373E-003
  0.21744999999999998          7.0607851822068182E-003
  0.21829999999999999          6.2495709151556122E-003
  0.21915000000000001          5.4208103055571359E-003
  0.21999999999999997          4.6239104702830028E-003
  0.22084999999999999          3.8944496054305381E-003
  0.22170000000000001          3.2522378562467391E-003
  0.22254999999999997          2.6807301158518525E-003
  0.22339999999999999          2.1460793735043030E-003
  0.22425000000000000          1.6073333846618383E-003
  0.22509999999999997          1.0335469123755846E-003
  0.22594999999999998          4.2125140769409304E-004
  0.22680000000000000         -1.9985474163171268E-004
  0.22764999999999996         -7.8011135555818684E-004
  0.22849999999999998         -1.2602402592803161E-003
  0.22935000000000000         -1.5964626309312455E-003
  0.23019999999999996         -1.7710517707898478E-003
  0.23104999999999998         -1.8027538848005347E-003
  0.23190000000000000         -1.7415913461734140E-003
  0.23275000000000001         -1.6485155213840125E-003
  0.23359999999999997         -1.5776563140990536E-003
  0.23444999999999999         -1.5558794099845650E-003
  0.23530000000000001         -1.5735919552686010E-003
  0.23614999999999997         -1.5923582964270080E-003
  0.23699999999999999         -1.5585296276089107E-003
  0.23785000000000001         -1.4194777838593125E-003
  0.23869999999999997         -1.1462689417801864E-003
  0.23954999999999999         -7.4573933357591031E-004
  0.24040000000000000         -2.5237673150317456E-004
  0.24124999999999996          2.7784343939677759E-004
  0.24209999999999998          7.8684517378617154E-004
  0.24295000000000000          1.2349376926745561E-003
  0.24379999999999996          1.6078113271781652E-003
  0.24464999999999998          1.9199453586247631E-003
  0.24550000000000000          2.2061131640622863E-003
  0.24634999999999996          2.5077895992745122E-003
  0.24719999999999998          2.8606823701627631E-003
  0.24804999999999999          3.2784684281728701E-003
  0.24890000000000001          3.7549517193247264E-003
  0.24974999999999997          4.2623577468553350E-003
  0.25059999999999999          4.7640656832774438E-003
  0.25145000000000001          5.2247254871171100E-003
  0.25229999999999997          5.6172457115060432E-003
  0.25314999999999999          5.9258892473037748E-003
  0.25400000000000000          6.1500390209441851E-003
  0.25484999999999997          6.2969442528566710E-003
  0.25569999999999998          6.3820891622994817E-003
  0.25655000000000000          6.4214007276887477E-003
  0.25739999999999996          6.4308783930759087E-003
  0.25824999999999998          6.4252571785213273E-003
  0.25910000000000000          6.4144415477439794E-003
  0.25994999999999996          6.4043239601957970E-003
  0.26079999999999998          6.3900073178964059E-003
  0.26164999999999999          6.3562717209485258E-003
  0.26249999999999996          6.2766281075374601E-003
  0.26334999999999997          6.1183738863371025E-003
  0.26419999999999999          5.8502320212482804E-003
  0.26505000000000001          5.4490676595593795E-003
  0.26589999999999997          4.9142853456852044E-003
  0.26674999999999999          4.2638698744022112E-003
  0.26760000000000000          3.5372301414944994E-003
  0.26844999999999997          2.7827241308551244E-003
  0.26929999999999998          2.0442131085043756E-003
  0.27015000000000000          1.3532406061501786E-003
  0.27099999999999996          7.1202284105461103E-004
  0.27184999999999998          1.0079020539247385E-004
  0.27270000000000000         -5.1564900369622667E-004
  0.27354999999999996         -1.1745831888255605E-003
  0.27439999999999998         -1.9015374507777710E-003
  0.27524999999999999         -2.6950501499143961E-003
  0.27609999999999996         -3.5254375185798620E-003
  0.27694999999999997         -4.3392220442036323E-003
  0.27779999999999999         -5.0769177000204386E-003
  0.27865000000000001         -5.6886948985477338E-003
  0.27949999999999997         -6.1460708343083308E-003
  0.28034999999999999         -6.4537684626571326E-003
  0.28120000000000001         -6.6394817438497544E-003
  0.28204999999999997         -6.7465482996370623E-003
  0.28289999999999998         -6.8138633875966760E-003
  0.28375000000000000         -6.8616438993972448E-003
  0.28459999999999996         -6.8825747617902739E-003
  0.28544999999999998         -6.8468333055784671E-003
  0.28630000000000000         -6.7088859173454387E-003
  0.28714999999999996         -6.4275486540665977E-003
  0.28799999999999998         -5.9806407113304804E-003
  0.28885000000000000         -5.3717671563025876E-003
  0.28969999999999996         -4.6352859080730936E-003
  0.29054999999999997         -3.8237315279833158E-003
  0.29139999999999999         -2.9917940296267163E-003
  0.29224999999999995         -2.1875102732859062E-003
  0.29309999999999997         -1.4324270439371597E-003
  0.29394999999999999         -7.2595009687181119E-004
  0.29480000000000001         -4.4710865511628388E-005
  0.29564999999999997          6.4073904003376556E-004
  0.29649999999999999          1.3551573438413695E-003
  0.29735000000000000          2.1065060858831172E-003
  0.29819999999999997          2.8828397367435372E-003
  0.29904999999999998          3.6532156129677491E-003
  0.29990000000000000          4.3786014712409284E-003
  0.30074999999999996          5.0220792298703515E-003
  0.30159999999999998          5.5587901874231179E-003
  0.30245000000000000          5.9834506983041900E-003
  0.30329999999999996          6.3061006567386394E-003
  0.30414999999999998          6.5468578490126949E-003
  0.30499999999999999          6.7278699029079412E-003
  0.30584999999999996          6.8664193590576295E-003
  0.30669999999999997          6.9659415322231213E-003
  0.30754999999999999          7.0183520951012466E-003
  0.30840000000000001          7.0084823036688469E-003
  0.30924999999999997          6.9198091054614545E-003
  0.31009999999999999          6.7398844532878689E-003
  0.31095000000000000          6.4682755950991643E-003
  0.31179999999999997          6.1133920266077902E-003
  0.31264999999999998          5.6939919764777145E-003
  0.31350000000000000          5.2299105444844965E-003
  0.31434999999999996          4.7399065128654536E-003
  0.31519999999999998          4.2356043636537187E-003
  0.31605000000000000          3.7204818076392769E-003
  0.31689999999999996          3.1902598681028947E-003
  0.31774999999999998          2.6370159555462974E-003
  0.31859999999999999          2.0530991385544154E-003
  0.31944999999999996          1.4334124141792155E-003
  0.32029999999999997          7.8142435758955342E-004
  0.32114999999999999          1.0407921408633981E-004
  0.32199999999999995         -5.8582412582633772E-004
  0.32284999999999997         -1.2711989320209481E-003
  0.32369999999999999         -1.9379610641037008E-003
  0.32455000000000001         -2.5723640430223610E-003
  0.32539999999999997         -3.1665481425654290E-003
  0.32624999999999998         -3.7166702515731543E-003
  0.32710000000000000         -4.2239359569123331E-003
  0.32794999999999996         -4.6919954243760187E-003
  0.32879999999999998         -5.1257032931265141E-003
  0.32965000000000000         -5.5279240611185703E-003
  0.33049999999999996         -5.8977502777651366E-003
  0.33134999999999998         -6.2268977328558848E-003
  0.33220000000000000         -6.5026607589302593E-003
  0.33304999999999996         -6.7073370434449549E-003
  0.33389999999999997         -6.8212971529296599E-003
  0.33474999999999999         -6.8284734008347055E-003
  0.33559999999999995         -6.7185019504900755E-003
  0.33644999999999997         -6.4921099593741594E-003
  0.33729999999999999         -6.1612606761528889E-003
  0.33815000000000001         -5.7465281214914921E-003
  0.33899999999999997         -5.2747914711131954E-003
  0.33984999999999999         -4.7718071396074804E-003
  0.34070000000000000         -4.2560789761476947E-003
  0.34154999999999996         -3.7331324680421841E-003
  0.34239999999999998         -3.1964240956932548E-003
  0.34325000000000000         -2.6288129612056649E-003
  0.34409999999999996         -2.0095367161915858E-003
  0.34494999999999998         -1.3211256683432447E-003
  0.34580000000000000         -5.5751156499325315E-004
  0.34664999999999996          2.7096169767790379E-004
  0.34749999999999998          1.1377342299321539E-003
  0.34834999999999999          2.0032664589718164E-003
  0.34919999999999995          2.8253309289357365E-003
  0.35004999999999997          3.5657444102464063E-003
  0.35089999999999999          4.2018855118317695E-003
  0.35174999999999995          4.7287198261192131E-003
  0.35259999999999997          5.1601683206745821E-003
  0.35344999999999999          5.5214316678200920E-003
  0.35430000000000000          5.8409953292310026E-003
  0.35514999999999997          6.1386396064541738E-003
  0.35599999999999998          6.4199952533680986E-003
  0.35685000000000000          6.6728570696765631E-003
  0.35769999999999996          6.8697785879502744E-003
  0.35854999999999998          6.9771349117747714E-003
  0.35940000000000000          6.9644675718017841E-003