 -0.12000000000000000          0.0000000000000000
 -0.11914999999999999          0.0000000000000000
 -0.11830000000000000          0.0000000000000000
 -0.11745000000000000          0.0000000000000000
 -0.11660000000000000          0.0000000000000000
 -0.11574999999999999          0.0000000000000000
 -0.11490000000000000          0.0000000000000000
 -0.11405000000000000          0.0000000000000000
 -0.11320000000000000          0.0000000000000000
 -0.11234999999999999          0.0000000000000000
 -0.11150000000000000          0.0000000000000000
 -0.11065000000000000          2.1171200098685793E-033
 -0.10979999999999999          3.2404611001806693E-032
 -0.10894999999999999          2.1531797881396659E-031
 -0.10810000000000000          6.1549840919111016E-031
 -0.10725000000000000         -1.6315358382228217E-030
 -0.10639999999999999         -2.8051847923160063E-029
 -0.10554999999999999         -1.7312560129411634E-028
 -0.10470000000000000         -7.3108641152780524E-028
 -0.10385000000000000         -2.3624332354477339E-027
 -0.10299999999999999         -5.9766029636494577E-027
 -0.10214999999999999         -1.1332539483283319E-026
 -0.10130000000000000         -1.2457741107827938E-026
 -0.10045000000000000          1.1993108275704639E-026
  -9.9599999999999994E-002     1.1154273539154974E-025
  -9.8750000000000004E-002     3.6633366817924465E-025
  -9.7900000000000001E-002     8.4433036804389682E-025
  -9.7049999999999997E-002     1.4557682010526803E-024
  -9.6199999999999994E-002     1.6530527091275740E-024
  -9.5349999999999990E-002     1.3934653992729399E-026
  -9.4500000000000001E-002    -6.0181576164468075E-024
  -9.3649999999999997E-002    -1.9572998630106935E-023
  -9.2799999999999994E-002    -4.1920871851845930E-023
  -9.1950000000000004E-002    -6.7164622725644747E-023
  -9.1100000000000000E-002    -7.4244090209598171E-023
  -9.0249999999999997E-002    -1.9493075881610167E-023
  -8.9399999999999993E-002     1.6205770612759518E-022
  -8.8549999999999990E-002     5.3325790212752227E-022
  -8.7700000000000000E-002     1.0948274153501112E-021
  -8.6849999999999997E-002     1.6841254993988348E-021
  -8.5999999999999993E-002     1.8557775216438514E-021
  -8.5150000000000003E-002     8.1441259256829460E-022
  -8.4300000000000000E-002    -2.4753962487641224E-021
  -8.3449999999999996E-002    -8.8465317907686715E-021
  -8.2600000000000007E-002    -1.8045189646138487E-020
  -8.1749999999999989E-002    -2.7477640707628770E-020
  -8.0900000000000000E-002    -3.1004474031763558E-020
  -8.0049999999999996E-002    -1.8653158908775838E-020
  -7.9199999999999993E-002     2.1498684823073671E-020
  -7.8350000000000003E-002     9.8033270862034616E-020
  -7.7499999999999999E-002     2.0707404074968147E-019
  -7.6649999999999996E-002     3.2082728426196365E-019
  -7.5800000000000006E-002     3.7819338221162450E-019
  -7.4949999999999989E-002     2.8502051980113160E-019
  -7.4099999999999999E-002    -6.6632287000210714E-020
  -7.3249999999999996E-002    -7.5269951612930054E-019
  -7.2399999999999992E-002    -1.7449428888803149E-018
  -7.1550000000000002E-002    -2.8269609482591462E-018
  -7.0699999999999999E-002    -3.5319699867030463E-018
  -6.9849999999999995E-002    -3.1534817513470646E-018
  -6.9000000000000006E-002    -8.8572355174208812E-019
  -6.8149999999999988E-002     3.8677193561467138E-018
  -6.7299999999999999E-002     1.1030446943219388E-017
  -6.6449999999999995E-002     1.9333779636149717E-017
  -6.5599999999999992E-002     2.5942539229880733E-017
  -6.4750000000000002E-002     2.6510550543281222E-017
  -6.3899999999999998E-002     1.5961771645672918E-017
  -6.3049999999999995E-002    -9.8226711383443547E-018
  -6.2199999999999998E-002    -5.1507793958038953E-017
  -6.1350000000000002E-002    -1.0351664589151061E-016
  -6.0499999999999998E-002    -1.5194505985830109E-016
  -5.9650000000000002E-002    -1.7453228839334874E-016
  -5.8799999999999998E-002    -1.4405554054547030E-016
  -5.7950000000000002E-002    -3.5968803425561769E-017
  -5.7099999999999998E-002     1.6011442755685754E-016
  -5.6249999999999994E-002     4.2728508922366737E-016
  -5.5400000000000005E-002     7.1070906370093180E-016
  -5.4550000000000001E-002     9.1512076856542294E-016
  -5.3699999999999998E-002     9.1614857027735479E-016
  -5.2849999999999994E-002     5.8912314407222613E-016
  -5.2000000000000005E-002    -1.4554735400042367E-016
  -5.1150000000000001E-002    -1.2680063382332010E-015
  -5.0299999999999997E-002    -2.6104905935638202E-015
  -4.9449999999999994E-002    -3.8353235683867206E-015
  -4.8600000000000004E-002    -4.4609203489073604E-015
  -4.7750000000000001E-002    -3.9511814143269575E-015
  -4.6899999999999997E-002    -1.8690432057060001E-015
  -4.6049999999999994E-002     1.9268850348264949E-015
  -4.5200000000000004E-002     7.0883769753402956E-015
  -4.4350000000000001E-002     1.2652483291316274E-014
  -4.3499999999999997E-002     1.7058537704755774E-014
  -4.2649999999999993E-002     1.8366317330740428E-014
  -4.1800000000000004E-002     1.4694572070334594E-014
  -4.0950000000000000E-002     4.8360416353173202E-015
  -4.0099999999999997E-002    -1.1069764411165170E-014
  -3.9249999999999993E-002    -3.0992363219505469E-014
  -3.8400000000000004E-002    -5.0816263881917767E-014
  -3.7550000000000000E-002    -6.4698469339085066E-014
  -3.6699999999999997E-002    -6.6088489670916897E-014
  -3.5850000000000007E-002    -4.9363101222762570E-014
  -3.5000000000000003E-002    -1.1825519124409940E-014
  -3.4150000000000000E-002     4.4381892526107465E-014
  -3.3299999999999996E-002     1.1103995242228260E-013
  -3.2450000000000007E-002     1.7389032483361198E-013
  -3.1600000000000003E-002     2.1438898341391794E-013
  -3.0750000000000000E-002     2.1327596379424619E-013
  -2.9899999999999996E-002     1.5558080694976604E-013
  -2.9050000000000006E-002     3.6156591551403545E-014
  -2.8200000000000003E-002    -1.3560223398727537E-013
  -2.7349999999999999E-002    -3.3340257045643755E-013
  -2.6499999999999996E-002    -5.1543077725979069E-013
  -2.5650000000000006E-002    -6.3024956574726331E-013
  -2.4800000000000003E-002    -6.2701942474009723E-013
  -2.3949999999999999E-002    -4.6864874456854238E-013
  -2.3099999999999996E-002    -1.4531339521571381E-013
  -2.2250000000000006E-002     3.1502155910123593E-013
  -2.1400000000000002E-002     8.4258501488901049E-013
  -2.0549999999999999E-002     1.3310681783292049E-012
  -1.9699999999999995E-002     1.6533267969026694E-012
  -1.8850000000000006E-002     1.6863448172055821E-012
  -1.8000000000000002E-002     1.3416944681716799E-012
  -1.7149999999999999E-002     5.9544761606502857E-013
  -1.6299999999999995E-002    -4.8979033775989594E-013
  -1.5450000000000005E-002    -1.7578564513810589E-012
  -1.4600000000000002E-002    -2.9721491731446791E-012
  -1.3749999999999998E-002    -3.8503632889516172E-012
  -1.2899999999999995E-002    -4.1175323819881970E-012
  -1.2050000000000005E-002    -3.5690892294215850E-012
  -1.1200000000000002E-002    -2.1316480847332301E-012
  -1.0349999999999998E-002     9.2710908223585020E-014
  -9.5000000000000084E-003     2.8118324864464833E-012
  -8.6500000000000049E-003     5.5674990206797694E-012
  -7.8000000000000014E-003     7.7999604649822439E-012
  -6.9499999999999978E-003     8.9461921959198261E-012
  -6.1000000000000082E-003     8.5565212781397853E-012
  -5.2500000000000047E-003     6.4076968621550657E-012
  -4.4000000000000011E-003     2.5878457589916763E-012
  -3.5499999999999976E-003    -2.4689512292843325E-012
  -2.7000000000000079E-003    -8.0131725878483963E-012
  -1.8500000000000044E-003    -1.3078427427788493E-011
  -1.0000000000000009E-003    -1.6637181623709347E-011
  -1.4999999999999736E-004    -1.7789433933689874E-011
   6.9999999999999230E-004    -1.5950542902115670E-011
   1.5499999999999958E-003    -1.1000836653588549E-011
   2.3999999999999994E-003    -3.3636805244570355E-012
   3.2500000000000029E-003     6.0101008456263468E-012
   4.0999999999999925E-003     1.5756564418374993E-011
   4.9499999999999961E-003     2.4297779692269917E-011
   5.7999999999999996E-003     3.0094070947671217E-011
   6.6499999999999893E-003     3.1905748601916562E-011
   7.5000000000000067E-003     2.9017066221147900E-011
   8.3499999999999963E-003     2.1381089021227377E-011
   9.1999999999999860E-003     9.6587755023645309E-012
   1.0050000000000003E-002    -4.8541113942500250E-012
   1.0899999999999993E-002    -2.0397213996515042E-011
   1.1750000000000010E-002    -3.4980318691489958E-011
   1.2600000000000000E-002    -4.6639870168747271E-011
   1.3449999999999990E-002    -5.3674839034945688E-011
   1.4300000000000007E-002    -5.4829462968144861E-011
   1.5149999999999997E-002    -4.9407397645619157E-011
   1.5999999999999986E-002    -3.7320575382037601E-011
   1.6850000000000004E-002    -1.9091682618870256E-011
   1.7699999999999994E-002     4.1644071975111723E-012
   1.8549999999999983E-002     3.0759576952172450E-011
   1.9400000000000001E-002     5.8445780977676234E-011
   2.0249999999999990E-002     8.4439203288379337E-011
   2.1100000000000008E-002     1.0549208782484699E-010
   2.1949999999999997E-002     1.1806152396908943E-010
   2.2799999999999987E-002     1.1862060723240934E-010
   2.3650000000000004E-002     1.0413398849977139E-010
   2.4499999999999994E-002     7.2677875279053654E-011
   2.5349999999999984E-002     2.4131030014666295E-011
   2.6200000000000001E-002    -3.9188037450932244E-011
   2.7049999999999991E-002    -1.1210028775086767E-010
   2.7900000000000008E-002    -1.8653070300642295E-010
   2.8749999999999998E-002    -2.5199405684008524E-010
   2.9599999999999987E-002    -2.9666570428907447E-010
   3.0450000000000005E-002    -3.0899261729829884E-010
   3.1299999999999994E-002    -2.7967731330612931E-010
   3.2149999999999984E-002    -2.0375256010548424E-010
   3.3000000000000002E-002    -8.2382369319392808E-011
   3.3849999999999991E-002     7.5996817378771418E-011
   3.4700000000000009E-002     2.5553223884781335E-010
   3.5549999999999998E-002     4.3402218721768071E-010
   3.6399999999999988E-002     5.8522427699671586E-010
   3.7250000000000005E-002     6.8221960186822869E-010
   3.8099999999999995E-002     7.0143516288209977E-010
   3.8949999999999985E-002     6.2675827220907254E-010
   3.9800000000000002E-002     4.5309253857856423E-010
   4.0649999999999992E-002     1.8871858343843735E-010
   4.1500000000000009E-002    -1.4405088975099857E-010
   4.2349999999999999E-002    -5.1020966962315845E-010
   4.3199999999999988E-002    -8.6539400979966060E-010
   4.4050000000000006E-002    -1.1609114107910001E-009
   4.4899999999999995E-002    -1.3498840448834567E-009
   4.5749999999999985E-002    -1.3937235312646986E-009
   4.6600000000000003E-002    -1.2680652814725403E-009
   4.7449999999999992E-002    -9.6732296045894139E-010
   4.8299999999999982E-002    -5.0717559207956835E-010
   4.9149999999999999E-002     7.5438204916214699E-011
   4.9999999999999989E-002     7.2493967642233229E-010
   5.0850000000000006E-002     1.3721283554394810E-009
   5.1699999999999996E-002     1.9411014911838572E-009
   5.2549999999999986E-002     2.3573436499671237E-009
   5.3400000000000003E-002     2.5561353227925506E-009
   5.4249999999999993E-002     2.4904039774661803E-009
   5.5099999999999982E-002     2.1372120568676482E-009
   5.5950000000000000E-002     1.5022188921215864E-009
   5.6799999999999989E-002     6.2163499630451208E-010
   5.7650000000000007E-002    -4.3860463970479486E-010
   5.8499999999999996E-002    -1.5865303666726981E-009
   5.9349999999999986E-002    -2.7105796359737505E-009
   6.0200000000000004E-002    -3.6885071627267242E-009
   6.1049999999999993E-002    -4.3982947301481182E-009
   6.1899999999999983E-002    -4.7303977930158025E-009
   6.2750000000000000E-002    -4.6004465631698733E-009
   6.3599999999999990E-002    -3.9613030898302674E-009
   6.4450000000000007E-002    -2.8131846419098661E-009
   6.5299999999999997E-002    -1.2104481622861477E-009
   6.6149999999999987E-002     7.3633639318257649E-010
   6.7000000000000004E-002     2.8641506999931407E-009
   6.7849999999999994E-002     4.9678094003546047E-009
   6.8699999999999983E-002     6.8167099448548408E-009
   6.9550000000000001E-002     8.1771518908438615E-009
   7.0399999999999990E-002     8.8383981264128884E-009
   7.1249999999999980E-002     8.6398022865380406E-009
   7.2099999999999997E-002     7.4957220154969894E-009
   7.2949999999999987E-002     5.4147585428361626E-009
   7.3800000000000004E-002     2.5101526054131101E-009
   7.4649999999999994E-002    -1.0010483477194389E-009
   7.5499999999999984E-002    -4.8111742514168687E-009
   7.6350000000000001E-002    -8.5470984061350318E-009
   7.7199999999999991E-002    -1.1805401068651115E-008
   7.8049999999999981E-002    -1.4194132423387611E-008
   7.8899999999999998E-002    -1.5376766280957183E-008
   7.9749999999999988E-002    -1.5113350674537682E-008
   8.0600000000000005E-002    -1.3294063606996107E-008
   8.1449999999999995E-002    -9.9609827102103387E-009
   8.2299999999999984E-002    -5.3151127752422993E-009
   8.3150000000000002E-002     2.9280008858868770E-010
   8.3999999999999991E-002     6.3874463126871643E-009
   8.4849999999999981E-002     1.2408315504537913E-008
   8.5699999999999998E-002     1.7759957498641422E-008
   8.6549999999999988E-002     2.1868626374345644E-008
   8.7400000000000005E-002     2.4240105234633339E-008
   8.8249999999999995E-002     2.4513103920933232E-008
   8.9099999999999985E-002     2.2502782462787363E-008
   8.9950000000000002E-002     1.8229598138670397E-008
   9.0799999999999992E-002     1.1929825689935145E-008
   9.1649999999999981E-002     4.0457560180966904E-009
   9.2499999999999999E-002    -4.8045212381402230E-009
   9.3349999999999989E-002    -1.3875749405952447E-008
   9.4200000000000006E-002    -2.2358531288018907E-008
   9.5049999999999996E-002    -2.9451081435499792E-008
   9.5899999999999985E-002    -3.4432988813783652E-008
   9.6750000000000003E-002    -3.6733958760388560E-008
   9.7599999999999992E-002    -3.5990943100078742E-008
   9.8449999999999982E-002    -3.2088312944961658E-008
   9.9299999999999999E-002    -2.5177440213187194E-008
  0.10014999999999999         -1.5673968961116164E-008
  0.10099999999999998         -4.2330782705617503E-009
  0.10185000000000000          8.2952810890001699E-009
  0.10269999999999999          2.0927960283296338E-008
  0.10355000000000000          3.2622636904752462E-008
  0.10439999999999999          4.2359369091187018E-008
  0.10524999999999998          4.9224163312876289E-008
  0.10610000000000000          5.2488714295743277E-008
  0.10694999999999999          5.1680094394166167E-008
  0.10779999999999998          4.6634147144174831E-008
  0.10865000000000000          3.7526795729079308E-008
  0.10949999999999999          2.4878546772498791E-008
  0.11035000000000000          9.5292686357848905E-009
  0.11119999999999999         -7.4168964632951363E-009
  0.11204999999999998         -2.4673445497840136E-008
  0.11290000000000000         -4.0873918929965102E-008
  0.11374999999999999         -5.4685602864856211E-008
  0.11459999999999998         -6.4923416023363517E-008
  0.11545000000000000         -7.0652652190052328E-008
  0.11629999999999999         -7.1270309553468531E-008
  0.11715000000000000         -6.6557376884950211E-008
  0.11799999999999999         -5.6698061522600898E-008
  0.11884999999999998         -4.2265718768668588E-008
  0.11970000000000000         -2.4178897841136441E-008
  0.12054999999999999         -3.6332318484242189E-009
  0.12139999999999998          1.7983602033391041E-008
  0.12225000000000000          3.9186617698797939E-008
  0.12309999999999999          5.8491353387156156E-008
  0.12395000000000000          7.4509443977699216E-008
  0.12479999999999999          8.6037639029479374E-008
  0.12564999999999998          9.2136633594309172E-008
  0.12650000000000000          9.2196382147750534E-008
  0.12734999999999999          8.5984281966551385E-008
  0.12819999999999998          7.3672800771533370E-008
  0.12905000000000000          5.5843202318500532E-008
  0.12989999999999999          3.3463355465501518E-008
  0.13074999999999998          7.8391360944056819E-009
  0.13159999999999999         -1.9458727789287017E-008
  0.13245000000000001         -4.6688059145706280E-008
  0.13329999999999997         -7.2042732367033219E-008
  0.13414999999999999         -9.3766877194543429E-008
  0.13500000000000001         -1.1026850682360072E-007
  0.13584999999999997         -1.2022545374526639E-007
  0.13669999999999999         -1.2267842655617485E-007
  0.13755000000000001         -1.1710684471567470E-007
  0.13839999999999997         -1.0348384248453117E-007
  0.13924999999999998         -8.2307362433226251E-008
  0.14010000000000000         -5.4603868309476565E-008
  0.14094999999999996         -2.1900623387205446E-008
  0.14179999999999998          1.3837195218882594E-008
  0.14265000000000000          5.0306995762069035E-008
  0.14350000000000002          8.5006362824227674E-008
  0.14434999999999998          1.1540297885492948E-007
  0.14520000000000000          1.3912720308986474E-007
  0.14605000000000001          1.5417158837181091E-007
  0.14689999999999998          1.5907841237258806E-007
  0.14774999999999999          1.5309439150373814E-007
  0.14860000000000001          1.3627293410925943E-007
  0.14944999999999997          1.0950892483226738E-007
  0.15029999999999999          7.4497964354343103E-008
  0.15115000000000001          3.3620896328935577E-008
  0.15199999999999997         -1.0237142716843474E-008
  0.15284999999999999         -5.3916360613951186E-008
  0.15370000000000000         -9.4238429913591560E-008
  0.15454999999999997         -1.2826481901956061E-007
  0.15539999999999998         -1.5353374707991019E-007
  0.15625000000000000         -1.6825557691696917E-007
  0.15709999999999996         -1.7145033372798607E-007
  0.15794999999999998         -1.6301777489380744E-007
  0.15880000000000000         -1.4373595251380481E-007
  0.15965000000000001         -1.1518906349663564E-007
  0.16049999999999998         -7.9631549413013318E-008
  0.16134999999999999         -3.9799186613397753E-008
  0.16220000000000001          1.3175903246486107E-009
  0.16304999999999997          4.0719788452953498E-008
  0.16389999999999999          7.5644558011906952E-008
  0.16475000000000001          1.0378698143163596E-007
  0.16559999999999997          1.2347861520671000E-007
  0.16644999999999999          1.3380601180712286E-007
  0.16730000000000000          1.3465792581124383E-007
  0.16814999999999997          1.2669748726352178E-007
  0.16899999999999998          1.1126341199619232E-007
  0.16985000000000000          9.0211999434135696E-008
  0.17069999999999996          6.5717759645587237E-008
  0.17154999999999998          4.0054287645069308E-008
  0.17240000000000000          1.5377497473859432E-008
  0.17325000000000002         -6.4680836859072087E-009
  0.17409999999999998         -2.4102908250952206E-008
  0.17494999999999999         -3.6714045745811291E-008
  0.17580000000000001         -4.4097937576144391E-008
  0.17664999999999997         -4.6642363772321235E-008
  0.17749999999999999         -4.5250408555549828E-008
  0.17835000000000001         -4.1212809217997146E-008
  0.17919999999999997         -3.6039513517796022E-008
  0.18004999999999999         -3.1264969274403453E-008
  0.18090000000000001         -2.8245599495187973E-008
  0.18174999999999997         -2.7971200584749778E-008
  0.18259999999999998         -3.0914189900751465E-008
  0.18345000000000000         -3.6938677486962858E-008
  0.18429999999999996         -4.5287639187713998E-008
  0.18514999999999998         -5.4657643829713401E-008
  0.18600000000000000         -6.3359295003607225E-008
  0.18684999999999996         -6.9547676328461561E-008
  0.18769999999999998         -7.1495018824856134E-008
  0.18855000000000000         -6.7867933116109110E-008
  0.18940000000000001         -5.7966006256845132E-008
  0.19024999999999997         -4.1883356743015223E-008
  0.19109999999999999         -2.0563600571864864E-008
  0.19195000000000001          4.2661238049333396E-009
  0.19279999999999997          3.0277539430148017E-008
  0.19364999999999999          5.4814705663454531E-008
  0.19450000000000001          7.5220867349475963E-008
  0.19534999999999997          8.9173127718526784E-008
  0.19619999999999999          9.4975444814395363E-008
  0.19705000000000000          9.1770040266188898E-008
  0.19789999999999996          7.9639629223496308E-008
  0.19874999999999998          5.9590051019021077E-008
  0.19960000000000000          3.3418794737403501E-008
  0.20044999999999996          3.4865858235424870E-009
  0.20129999999999998         -2.7573644977835089E-008
  0.20215000000000000         -5.7172272790911156E-008
  0.20300000000000001         -8.3074715542716541E-008
  0.20384999999999998         -1.0367231483937343E-007
  0.20469999999999999         -1.1817734850082835E-007
  0.20555000000000001         -1.2673097814771982E-007
  0.20639999999999997         -1.3040671227780531E-007
  0.20724999999999999         -1.3109715271175283E-007
  0.20810000000000001         -1.3130499272348191E-007
  0.20894999999999997         -1.3385259782536801E-007
  0.20979999999999999         -1.4154357437924934E-007
  0.21065000000000000         -1.5682654575708988E-007
  0.21149999999999997         -1.8147014325196492E-007
  0.21234999999999998         -2.1633334201506936E-007
  0.21320000000000000         -2.6127187590366386E-007
  0.21404999999999996         -3.1516347665214341E-007
  0.21489999999999998         -3.7607467471607357E-007
  0.21575000000000000         -4.4157065892960051E-007
  0.21659999999999996         -5.0909551576693980E-007
  0.21744999999999998         -5.7638056826141589E-007
  0.21829999999999999         -6.4185752696305150E-007
  0.21915000000000001         -7.0497231626369213E-007
  0.21999999999999997         -7.6638247076444747E-007
  0.22084999999999999         -8.2801854578715237E-007
  0.22170000000000001         -8.9297352511453681E-007
  0.22254999999999997         -9.6525522670835639E-007
  0.22339999999999999         -1.0494559028001990E-006
  0.22425000000000000         -1.1503152421641874E-006
  0.22509999999999997         -1.2722273760748369E-006
  0.22594999999999998         -1.4187308277352523E-006
  0.22680000000000000         -1.5921810429878063E-006
  0.22764999999999996         -1.7933057364320324E-006
  0.22849999999999998         -2.0209307821876500E-006
  0.22935000000000000         -2.2719556083447313E-006
  0.23019999999999996         -2.5412662738854561E-006
  0.23104999999999998         -2.8220108225520329E-006
  0.23190000000000000         -3.1060691055561053E-006
  0.23275000000000001         -3.3843284327504468E-006
  0.23359999999999997         -3.6475309575926734E-006
  0.23444999999999999         -3.8872713847149657E-006
  0.23530000000000001         -4.0964661167528302E-006
  0.23614999999999997         -4.2701460649775821E-006
  0.23699999999999999         -4.4059546537707352E-006
  0.23785000000000001         -4.5042051373735681E-006
  0.23869999999999997         -4.5675005610673888E-006
  0.23954999999999999         -4.6002312198364716E-006
  0.24040000000000000         -4.6076137030167831E-006
  0.24124999999999996         -4.5941507175529633E-006
  0.24209999999999998         -4.5629026885553254E-006
  0.24295000000000000         -4.5139843788930897E-006
  0.24379999999999996         -4.4431787312150271E-006
  0.24464999999999998         -4.3422889575551704E-006
  0.24550000000000000         -4.1988790008677012E-006
  0.24634999999999996         -3.9956996530106735E-006
  0.24719999999999998         -3.7127050631681673E-006
  0.24804999999999999         -3.3273279059317682E-006
  0.24890000000000001         -2.8155749162404174E-006
  0.24974999999999997         -2.1528674031768941E-006
  0.25059999999999999         -1.3164610260026636E-006
  0.25145000000000001         -2.8600427573836644E-007
  0.25229999999999997          9.5599365476686794E-007
  0.25314999999999999          2.4224858433477228E-006
  0.25400000000000000          4.1223598401612782E-006
  0.25484999999999997          6.0596490202135649E-006
  0.25569999999999998          8.2330602104483746E-006
  0.25655000000000000          1.0638970857165698E-005
  0.25739999999999996          1.3268810268129806E-005
  0.25824999999999998          1.6109546870155379E-005
  0.25910000000000000          1.9147057162759560E-005
  0.25994999999999996          2.2366152411704160E-005
  0.26079999999999998          2.5753102802496878E-005
  0.26164999999999999          2.9290965532356977E-005
  0.26249999999999996          3.2961177546390430E-005
  0.26334999999999997          3.6741807313761448E-005
  0.26419999999999999          4.0603872319030124E-005
  0.26505000000000001          4.4511925855497867E-005
  0.26589999999999997          4.8423130700091070E-005
  0.26674999999999999          5.2289317300253889E-005
  0.26760000000000000          5.6052128085868502E-005
  0.26844999999999997          5.9638080985923677E-005
  0.26929999999999998          6.2962835728849932E-005
  0.27015000000000000          6.5930356978161807E-005
  0.27099999999999996          6.8434618358351369E-005
  0.27184999999999998          7.0360611262494462E-005
  0.27270000000000000          7.1581765636175178E-005
  0.27354999999999996          7.1968278122521947E-005
  0.27439999999999998          7.1394098157529930E-005
  0.27524999999999999          6.9735795995401980E-005
  0.27609999999999996          6.6878227860277053E-005
  0.27694999999999997          6.2724117303048844E-005
  0.27779999999999999          5.7179642822583286E-005
  0.27865000000000001          5.0173680238409697E-005
  0.27949999999999997          4.1667103307293871E-005
  0.28034999999999999          3.1633839989028807E-005
  0.28120000000000001          2.0078515439810483E-005
  0.28204999999999997          7.0274107165969526E-006
  0.28289999999999998         -7.4748460050588441E-006
  0.28375000000000000         -2.3344555739690861E-005
  0.28459999999999996         -4.0460655306321612E-005
  0.28544999999999998         -5.8678010755884508E-005
  0.28630000000000000         -7.7823486903324642E-005
  0.28714999999999996         -9.7704369000990311E-005
  0.28799999999999998         -1.1811574177301961E-004
  0.28885000000000000         -1.3880862217855599E-004
  0.28969999999999996         -1.5949755590558806E-004
  0.29054999999999997         -1.7990060750913949E-004
  0.29139999999999999         -1.9970960121321808E-004
  0.29224999999999995         -2.1859822344119992E-004
  0.29309999999999997         -2.3621985554505469E-004
  0.29394999999999999         -2.5221825429557864E-004
  0.29480000000000001         -2.6624010442128179E-004
  0.29564999999999997         -2.7793094444321988E-004
  0.29649999999999999         -2.8694565610552444E-004
  0.29735000000000000         -2.9294925719523882E-004
  0.29819999999999997         -2.9563515425052022E-004
  0.29904999999999998         -2.9471928952282003E-004
  0.29990000000000000         -2.8997158705501054E-004
  0.30074999999999996         -2.8121667324165767E-004
  0.30159999999999998         -2.6833389665235024E-004
  0.30245000000000000         -2.5125876373079966E-004
  0.30329999999999996         -2.2999781996654270E-004
  0.30414999999999998         -2.0462663315413444E-004
  0.30499999999999999         -1.7526911181359650E-004
  0.30584999999999996         -1.4211481621252990E-004
  0.30669999999999997         -1.0542357765589027E-004
  0.30754999999999999         -6.5524727388118262E-005
  0.30840000000000001         -2.2819812367252074E-005
  0.30924999999999997          2.2225105809903450E-005
  0.31009999999999999          6.9067588959670633E-005
  0.31095000000000000          1.1712783908225442E-004
  0.31179999999999997          1.6579680520121743E-004
  0.31264999999999998          2.1443627092960796E-004
  0.31350000000000000          2.6238427339729021E-004
  0.31434999999999996          3.0896884847451354E-004
  0.31519999999999998          3.5353931672423472E-004
  0.31605000000000000          3.9545440882090486E-004
  0.31689999999999996          4.3408152566754574E-004
  0.31774999999999998          4.6881674528942164E-004
  0.31859999999999999          4.9909147031332519E-004
  0.31944999999999996          5.2436575247152221E-004
  0.32029999999999997          5.4415296739070585E-004
  0.32114999999999999          5.5805232028283862E-004
  0.32199999999999995          5.6572567416895547E-004
  0.32284999999999997          5.6692528270240166E-004
  0.32369999999999999          5.6147915309130584E-004
  0.32455000000000001          5.4930376285554534E-004
  0.32539999999999997          5.3044575162564437E-004
  0.32624999999999998          5.0503704981006044E-004
  0.32710000000000000          4.7331021246044952E-004
  0.32794999999999996          4.3561064787192268E-004
  0.32879999999999998          3.9233981087534599E-004
  0.32965000000000000          3.4398784003282040E-004
  0.33049999999999996          2.9113941490781459E-004
  0.33134999999999998          2.3443516064734459E-004
  0.33220000000000000          1.7456540367547421E-004
  0.33304999999999996          1.1228626893262346E-004
  0.33389999999999997          4.8375393445328892E-005
  0.33474999999999999         -1.6374328229835113E-005
  0.33559999999999995         -8.1172053833860046E-005
  0.33644999999999997         -1.4521959413356887E-004
  0.33729999999999999         -2.0773080850703990E-004
  0.33815000000000001         -2.6793755552287878E-004
  0.33899999999999997         -3.2512015296684435E-004
  0.33984999999999999         -3.7860725218732423E-004
  0.34070000000000000         -4.2774977357125648E-004
  0.34154999999999996         -4.7193894092142523E-004
  0.34239999999999998         -5.1061918281850862E-004
  0.34325000000000000         -5.4332687555469516E-004