 -0.12000000000000000          0.0000000000000000
 -0.11914999999999999          0.0000000000000000
 -0.11830000000000000          0.0000000000000000
 -0.11745000000000000          0.0000000000000000
 -0.11660000000000000          0.0000000000000000
 -0.11574999999999999          0.0000000000000000
 -0.11490000000000000          0.0000000000000000
 -0.11405000000000000          0.0000000000000000
 -0.11320000000000000          0.0000000000000000
 -0.11234999999999999          0.0000000000000000
 -0.11150000000000000          0.0000000000000000
 -0.11065000000000000          3.8689644857633417E-030
 -0.10979999999999999          3.2810934943542274E-029
 -0.10894999999999999         -7.2593856657612690E-029
 -0.10810000000000000         -2.9443061171504360E-027
 -0.10725000000000000         -2.6040217408190666E-026
 -0.10639999999999999         -1.4410011126690228E-025
 -0.10554999999999999         -5.8386244038751463E-025
 -0.10470000000000000         -1.8190397596929753E-024
 -0.10385000000000000         -4.3281836733757677E-024
 -0.10299999999999999         -7.0774212890529024E-024
 -0.10214999999999999         -3.1705554328657088E-024
 -0.10130000000000000          2.8176533091666328E-023
 -0.10045000000000000          1.2927905526094383E-022
  -9.9599999999999994E-002     3.5487074729627634E-022
  -9.8750000000000004E-002     7.1110498664991651E-022
  -9.7900000000000001E-002     9.9614553735467278E-022
  -9.7049999999999997E-002     5.2705388693052121E-022
  -9.6199999999999994E-002    -2.1351318566906478E-021
  -9.5349999999999990E-002    -9.0895000854691276E-021
  -9.4500000000000001E-002    -2.1917634994483221E-020
  -9.3649999999999997E-002    -3.8553167791562186E-020
  -9.2799999999999994E-002    -4.7861709515136482E-020
  -9.1950000000000004E-002    -2.3481364722351187E-020
  -9.1100000000000000E-002     7.7944852312934532E-020
  -9.0249999999999997E-002     3.0454343862046177E-019
  -8.9399999999999993E-002     6.7093244055471641E-019
  -8.8549999999999990E-002     1.0867360695107794E-018
  -8.7700000000000000E-002     1.2634089216638734E-018
  -8.6849999999999997E-002     6.4676418687541943E-019
  -8.5999999999999993E-002    -1.5307369127648952E-018
  -8.5150000000000003E-002    -5.9496857954713119E-018
  -8.4300000000000000E-002    -1.2548521876219794E-017
  -8.3449999999999996E-002    -1.9535782934388058E-017
  -8.2600000000000007E-002    -2.2365050460631038E-017
  -8.1749999999999989E-002    -1.3356233712847469E-017
  -8.0900000000000000E-002     1.6988517886151584E-017
  -8.0049999999999996E-002     7.5858929510437936E-017
  -7.9199999999999993E-002     1.6068255188861565E-016
  -7.8350000000000003E-002     2.4939438480822155E-016
  -7.7499999999999999E-002     2.9202796522818803E-016
  -7.6649999999999996E-002     2.1015391056404781E-016
  -7.5800000000000006E-002    -8.7407698210546253E-017
  -7.4949999999999989E-002    -6.6537470284612598E-016
  -7.4099999999999999E-002    -1.4985567398120947E-015
  -7.3249999999999996E-002    -2.3963158962867455E-015
  -7.2399999999999992E-002    -2.9448282800760833E-015
  -7.1550000000000002E-002    -2.5142065654741426E-015
  -7.0699999999999999E-002    -3.8449559699570833E-016
  -6.9849999999999995E-002     3.9706938768998523E-015
  -6.9000000000000006E-002     1.0451723174342925E-014
  -6.8149999999999988E-002     1.7841613675910156E-014
  -6.7299999999999999E-002     2.3446357384577643E-014
  -6.6449999999999995E-002     2.3142773285229724E-014
  -6.5599999999999992E-002     1.2128400764063287E-014
  -6.4750000000000002E-002    -1.3437510076179103E-014
  -6.3899999999999998E-002    -5.3980738235757929E-014
  -6.3049999999999995E-002    -1.0374553176275450E-013
  -6.2199999999999998E-002    -1.4870152058787027E-013
  -6.1350000000000002E-002    -1.6649607856387173E-013
  -6.0499999999999998E-002    -1.2987091829893452E-013
  -5.9650000000000002E-002    -1.4438686041541961E-014
  -5.8799999999999998E-002     1.8951344636754200E-013
  -5.7950000000000002E-002     4.6338169841853776E-013
  -5.7099999999999998E-002     7.4904580729719412E-013
  -5.6249999999999994E-002     9.4601828573373944E-013
  -5.5400000000000005E-002     9.2310060565478188E-013
  -5.4550000000000001E-002     5.4868949159180871E-013
  -5.3699999999999998E-002    -2.6083863665419868E-013
  -5.2849999999999994E-002    -1.4823414676607877E-012
  -5.2000000000000005E-002    -2.9324444950367594E-012
  -5.1150000000000001E-002    -4.2416308642606407E-012
  -5.0299999999999997E-002    -4.8799065435810150E-012
  -4.9449999999999994E-002    -4.2521003519619915E-012
  -4.8600000000000004E-002    -1.8655915850556733E-012
  -4.7750000000000001E-002     2.4504981063954154E-012
  -4.6899999999999997E-002     8.3233431127275059E-012
  -4.6049999999999994E-002     1.4684585049418373E-011
  -4.5200000000000004E-002     1.9772110815543638E-011
  -4.4350000000000001E-002     2.1356464731335081E-011
  -4.3499999999999997E-002     1.7221533201849365E-011
  -4.2649999999999993E-002     5.8605616705024881E-012
  -4.1800000000000004E-002    -1.2737115473580289E-011
  -4.0950000000000000E-002    -3.6413899526906950E-011
  -4.0099999999999997E-002    -6.0540939523878075E-011
  -3.9249999999999993E-002    -7.8328979513526779E-011
  -3.8400000000000004E-002    -8.1907745685648654E-011
  -3.7550000000000000E-002    -6.4158358215228683E-011
  -3.6699999999999997E-002    -2.1054029957711665E-011
  -3.5850000000000007E-002     4.5976542537472849E-011
  -3.5000000000000003E-002     1.2833179361864159E-010
  -3.4150000000000000E-002     2.0988793054209423E-010
  -3.3299999999999996E-002     2.6860336816459019E-010
  -3.2450000000000007E-002     2.8031446091421857E-010
  -3.1600000000000003E-002     2.2443000997959753E-010
  -3.0750000000000000E-002     9.0615828421624920E-011
  -2.9899999999999996E-002    -1.1500111666140648E-010
  -2.9050000000000006E-002    -3.6590704116315633E-010
  -2.8200000000000003E-002    -6.1529766932625105E-010
  -2.7349999999999999E-002    -8.0140012464884827E-010
  -2.6499999999999996E-002    -8.5820938684499340E-010
  -2.5650000000000006E-002    -7.3049336601149654E-010
  -2.4800000000000003E-002    -3.9049738469370306E-010
  -2.3949999999999999E-002     1.4732626067475889E-010
  -2.3099999999999996E-002     8.1774101654997050E-010
  -2.2250000000000006E-002     1.5060082319763971E-009
  -2.1400000000000002E-002     2.0612641858738000E-009
  -2.0549999999999999E-002     2.3218291327005107E-009
  -1.9699999999999995E-002     2.1493769504574728E-009
  -1.8850000000000006E-002     1.4660805622318325E-009
  -1.8000000000000002E-002     2.8680676373679147E-010
  -1.7149999999999999E-002    -1.2621329368182445E-009
  -1.6299999999999995E-002    -2.9448605221600332E-009
  -1.5450000000000005E-002    -4.4423744344764392E-009
  -1.4600000000000002E-002    -5.4027014969477594E-009
  -1.3749999999999998E-002    -5.5083717227485163E-009
  -1.2899999999999995E-002    -4.5498477867525053E-009
  -1.2050000000000005E-002    -2.4900677118639876E-009
  -1.1200000000000002E-002     4.9521064681379953E-010
  -1.0349999999999998E-002     4.0139962663312022E-009
  -9.5000000000000084E-003     7.4982932162389612E-009
  -8.6500000000000049E-003     1.0286409605862037E-008
  -7.8000000000000014E-003     1.1736639917630644E-008
  -6.9499999999999978E-003     1.1353577795971041E-008
  -6.1000000000000082E-003     8.9032087448074464E-009
  -5.2500000000000047E-003     4.4923746969875208E-009
  -4.4000000000000011E-003    -1.4072267989030676E-009
  -3.5499999999999976E-003    -8.0011516564173726E-009
  -2.7000000000000079E-003    -1.4278634940027114E-008
  -1.8500000000000044E-003    -1.9168475337102780E-008
  -1.0000000000000009E-003    -2.1718414464409834E-008
  -1.4999999999999736E-004    -2.1265656533900963E-008
   6.9999999999999230E-004    -1.7566179564820191E-008
   1.5499999999999958E-003    -1.0857226050691663E-008
   2.3999999999999994E-003    -1.8399866202378132E-009
   3.2500000000000029E-003     8.4150464756009475E-009
   4.0999999999999925E-003     1.8621813780963771E-008
   4.9499999999999961E-003     2.7461907895287248E-008
   5.7999999999999996E-003     3.3762513237816838E-008
   6.6499999999999893E-003     3.6637514882437281E-008
   7.5000000000000067E-003     3.5570622995603320E-008
   8.3499999999999963E-003     3.0434997708443524E-008
   9.1999999999999860E-003     2.1460289375841238E-008
   1.0050000000000003E-002     9.1711499339551170E-009
   1.0899999999999993E-002    -5.6735161341144303E-009
   1.1750000000000010E-002    -2.2115478741782685E-008
   1.2600000000000000E-002    -3.8994247604599804E-008
   1.3449999999999990E-002    -5.4914657352110166E-008
   1.4300000000000007E-002    -6.8213065877005421E-008
   1.5149999999999997E-002    -7.6965811259277161E-008
   1.5999999999999986E-002    -7.9086476953253093E-008
   1.6850000000000004E-002    -7.2546901254654135E-008
   1.7699999999999994E-002    -5.5728952732641743E-008
   1.8549999999999983E-002    -2.7876815828036046E-008
   1.9400000000000001E-002     1.0422433641771190E-008
   2.0249999999999990E-002     5.6837330370879994E-008
   2.1100000000000008E-002     1.0709017451940146E-007
   2.1949999999999997E-002     1.5506852067811311E-007
   2.2799999999999987E-002     1.9332167168085142E-007
   2.3650000000000004E-002     2.1395013610638556E-007
   2.4499999999999994E-002     2.0981250744113186E-007
   2.5349999999999984E-002     1.7589338613728747E-007
   2.6200000000000001E-002     1.1060986564939428E-007
   2.7049999999999991E-002     1.6801593905185246E-008
   2.7900000000000008E-002    -9.7831957964476568E-008
   2.8749999999999998E-002    -2.2102629891492810E-007
   2.9599999999999987E-002    -3.3704503276923821E-007
   3.0450000000000005E-002    -4.2850605275776678E-007
   3.1299999999999994E-002    -4.7874001323049350E-007
   3.2149999999999984E-002    -4.7435967692251265E-007
   3.3000000000000002E-002    -4.0765356605290429E-007
   3.3849999999999991E-002    -2.7840470543998483E-007
   3.4700000000000009E-002    -9.4801055247497578E-008
   3.5549999999999998E-002     1.2677751764834988E-007
   3.6399999999999988E-002     3.6314424855967666E-007
   3.7250000000000005E-002     5.8673729605750391E-007
   3.8099999999999995E-002     7.6880268720073808E-007
   3.8949999999999985E-002     8.8291920484263742E-007
   3.9800000000000002E-002     9.0840306431220783E-007
   4.0649999999999992E-002     8.3314150344436980E-007
   4.1500000000000009E-002     6.5550081341106053E-007
   4.2349999999999999E-002     3.8507586351464915E-007
   4.3199999999999988E-002     4.2217607265377360E-008
   4.4050000000000006E-002    -3.4357402582724614E-007
   4.4899999999999995E-002    -7.3618966835779523E-007
   4.5749999999999985E-002    -1.0960917601248111E-006
   4.6600000000000003E-002    -1.3838279090147785E-006
   4.7449999999999992E-002    -1.5635838875776037E-006
   4.8299999999999982E-002    -1.6065399393833539E-006
   4.9149999999999999E-002    -1.4938346989919231E-006
   4.9999999999999989E-002    -1.2189905421249618E-006
   5.0850000000000006E-002    -7.8966577823470435E-007
   5.1699999999999996E-002    -2.2858481745677822E-007
   5.2549999999999986E-002     4.2653578246862014E-007
   5.3400000000000003E-002     1.1242521032610759E-006
   5.4249999999999993E-002     1.8020656342775917E-006
   5.5099999999999982E-002     2.3905857665302539E-006
   5.5950000000000000E-002     2.8191958513367616E-006
   5.6799999999999989E-002     3.0229511527127816E-006
   5.7650000000000007E-002     2.9502320995640204E-006
   5.8499999999999996E-002     2.5703819437568483E-006
   5.9349999999999986E-002     1.8803701708415584E-006
   6.0200000000000004E-002     9.0943801172514528E-007
   6.1049999999999993E-002    -2.7930447681525402E-007
   6.1899999999999983E-002    -1.5910118709577825E-006
   6.2750000000000000E-002    -2.9053602196803207E-006
   6.3599999999999990E-002    -4.0866959772413742E-006
   6.4450000000000007E-002    -4.9972909966625445E-006
   6.5299999999999997E-002    -5.5124174393183753E-006
   6.6149999999999987E-002    -5.5355106979559757E-006
   6.7000000000000004E-002    -5.0115917580369463E-006
   6.7849999999999994E-002    -3.9371233424745571E-006
   6.8699999999999983E-002    -2.3649092378887751E-006
   6.9550000000000001E-002    -4.0311862660775209E-007
   7.0399999999999990E-002     1.7917201266261950E-006
   7.1249999999999980E-002     4.0272957964000265E-006
   7.2099999999999997E-002     6.0923914204593749E-006
   7.2949999999999987E-002     7.7765536432457606E-006
   7.3800000000000004E-002     8.8904607487006735E-006
   7.4649999999999994E-002     9.2851115379676166E-006
   7.5499999999999984E-002     8.8679453494177858E-006
   7.6350000000000001E-002     7.6143632874018992E-006
   7.7199999999999991E-002     5.5735364236811752E-006
   7.8049999999999981E-002     2.8679648889909460E-006
   7.8899999999999998E-002    -3.1338297458868139E-007
   7.9749999999999988E-002    -3.7278915306119676E-006
   8.0600000000000005E-002    -7.0971556836159597E-006
   8.1449999999999995E-002    -1.0128668958723521E-005
   8.2299999999999984E-002    -1.2539683442908307E-005
   8.3150000000000002E-002    -1.4081367868895207E-005
   8.3999999999999991E-002    -1.4561394133700693E-005
   8.4849999999999981E-002    -1.3862989002927338E-005
   8.5699999999999998E-002    -1.1958836922630665E-005
   8.6549999999999988E-002    -8.9184679877506908E-006
   8.7400000000000005E-002    -4.9083737190476138E-006
   8.8249999999999995E-002    -1.8438266210538073E-007
   8.9099999999999985E-002     4.9231682963824649E-006
   8.9950000000000002E-002     1.0030933698692087E-005
   9.0799999999999992E-002     1.4729224496921064E-005
   9.1649999999999981E-002     1.8612384910095337E-005
   9.2499999999999999E-002     2.1310729343559835E-005
   9.3349999999999989E-002     2.2522024611239278E-005
   9.4200000000000006E-002     2.2040053109307848E-005
   9.5049999999999996E-002     1.9777929277805595E-005
   9.5899999999999985E-002     1.5783958755475203E-005
   9.6750000000000003E-002     1.0247823865332316E-005
   9.7599999999999992E-002     3.4958772785063870E-006
   9.8449999999999982E-002    -4.0253586946325235E-006
   9.9299999999999999E-002    -1.1777163463855327E-005
  0.10014999999999999         -1.9166397044097089E-005
  0.10099999999999998         -2.5590788092020426E-005
  0.10185000000000000         -3.0487617353286074E-005
  0.10269999999999999         -3.3381953726150766E-005
  0.10355000000000000         -3.3929544705095021E-005
  0.10439999999999999         -3.1950573561047538E-005
  0.10524999999999998         -2.7450921517959969E-005
  0.10610000000000000         -2.0628821386011609E-005
  0.10694999999999999         -1.1866574054102207E-005
  0.10779999999999998         -1.7078949553747668E-006
  0.10865000000000000          9.1770233857290108E-006
  0.10949999999999999          2.0036079442876464E-005
  0.11035000000000000          3.0086178923078044E-005
  0.11119999999999999          3.8567038595704613E-005
  0.11204999999999998          4.4794916157838055E-005
  0.11290000000000000          4.8212517216069139E-005
  0.11374999999999999          4.8432734157461989E-005
  0.11459999999999998          4.5272721132548468E-005
  0.11545000000000000          3.8776073533024704E-005
  0.11629999999999999          2.9220784122469708E-005
  0.11715000000000000          1.7111300118330601E-005
  0.11799999999999999          3.1544841029055254E-006
  0.11884999999999998         -1.1780376688344378E-005
  0.11970000000000000         -2.6714922214248694E-005
  0.12054999999999999         -4.0625348473919803E-005
  0.12139999999999998         -5.2511684793561177E-005
  0.12225000000000000         -6.1467798765531650E-005
  0.12309999999999999         -6.6746984844982381E-005
  0.12395000000000000         -6.7818513064879814E-005
  0.12479999999999999         -6.4411501927927962E-005
  0.12564999999999998         -5.6542756131447651E-005
  0.12650000000000000         -4.4527831576427214E-005
  0.12734999999999999         -2.8972990884014526E-005
  0.12819999999999998         -1.0749276499127119E-005
  0.12905000000000000          9.0518316975653729E-006
  0.12989999999999999          2.9180039771434896E-005
  0.13074999999999998          4.8302061623106316E-005
  0.13159999999999999          6.5089197379774471E-005
  0.13245000000000001          7.8311353596031269E-005
  0.13329999999999997          8.6930449633597359E-005
  0.13414999999999999          9.0186451532433561E-005
  0.13500000000000001          8.7666672035506966E-005
  0.13584999999999997          7.9351566761337900E-005
  0.13669999999999999          6.5630143060059831E-005
  0.13755000000000001          4.7282339298579473E-005
  0.13839999999999997          2.5428252737643267E-005
  0.13924999999999998          1.4484062382227764E-006
  0.14010000000000000         -2.3117563917334401E-005
  0.14094999999999996         -4.6684781281425279E-005
  0.14179999999999998         -6.7737384670035509E-005
  0.14265000000000000         -8.4934384863071720E-005
  0.14350000000000002         -9.7197873558643890E-005
  0.14434999999999998         -1.0377716144237597E-004
  0.14520000000000000         -1.0428690029192604E-004
  0.14605000000000001         -9.8718331012893554E-005
  0.14689999999999998         -8.7426230585552455E-005
  0.14774999999999999         -7.1095054441468989E-005
  0.14860000000000001         -5.0688497744702795E-005
  0.14944999999999997         -2.7387382617709123E-005
  0.15029999999999999         -2.5189618690197227E-006
  0.15115000000000001          2.2518424908439367E-005
  0.15199999999999997          4.6331947290218551E-005
  0.15284999999999999          6.7610026669409450E-005
  0.15370000000000000          8.5193172631062585E-005
  0.15454999999999997          9.8137696659927838E-005
  0.15539999999999998          1.0576736196033209E-004
  0.15625000000000000          1.0771173899607480E-004
  0.15709999999999996          1.0392668761112899E-004
  0.15794999999999998          9.4696059626756050E-005
  0.15880000000000000          8.0613106056333497E-005
  0.15965000000000001          6.2542529664897498E-005
  0.16049999999999998          4.1564556965345945E-005
  0.16134999999999999          1.8904505826587942E-005
  0.16220000000000001         -4.1476409232835885E-006
  0.16304999999999997         -2.6322214682327453E-005
  0.16389999999999999         -4.6453032393407175E-005
  0.16475000000000001         -6.3552183575112743E-005
  0.16559999999999997         -7.6870046155605014E-005
  0.16644999999999999         -8.5935477242772356E-005
  0.16730000000000000         -9.0572036806031123E-005
  0.16814999999999997         -9.0889097029443525E-005
  0.16899999999999998         -8.7249490981785343E-005
  0.16985000000000000         -8.0216988605498970E-005
  0.17069999999999996         -7.0490898866835806E-005
  0.17154999999999998         -5.8835079211494279E-005
  0.17240000000000000         -4.6010709488266133E-005
  0.17325000000000002         -3.2718830049357489E-005
  0.17409999999999998         -1.9559300708616648E-005
  0.17494999999999999         -7.0075972292078708E-006
  0.17580000000000001          4.5913005821257465E-006
  0.17664999999999997          1.5015074201851021E-005
  0.17749999999999999          2.4148077076033883E-005
  0.17835000000000001          3.1962362330417626E-005
  0.17919999999999997          3.8499922830227855E-005
  0.18004999999999999          4.3858122361035203E-005
  0.18090000000000001          4.8178802751705134E-005
  0.18174999999999997          5.1636815742371802E-005
  0.18259999999999998          5.4425145031822247E-005
  0.18345000000000000          5.6733810023954474E-005
  0.18429999999999996          5.8719890707149962E-005
  0.18514999999999998          6.0471998252431025E-005
  0.18600000000000000          6.1971869976751426E-005
  0.18684999999999996          6.3063865027656631E-005
  0.18769999999999998          6.3436631739049480E-005
  0.18855000000000000          6.2629229018396572E-005
  0.18940000000000001          6.0065937483665942E-005
  0.19024999999999997          5.5114918589044153E-005
  0.19109999999999999          4.7170792082042043E-005
  0.19195000000000001          3.5748747731230357E-005
  0.19279999999999997          2.0577020058708780E-005
  0.19364999999999999          1.6639252645802743E-006
  0.19450000000000001         -2.0654528189686158E-005
  0.19534999999999997         -4.5712425677039921E-005
  0.19619999999999999         -7.2553733614700504E-005
  0.19705000000000000         -1.0000965662836828E-004
  0.19789999999999996         -1.2680758805521652E-004
  0.19874999999999998         -1.5169999050275950E-004
  0.19960000000000000         -1.7360022874272240E-004
  0.20044999999999996         -1.9172442745259147E-004
  0.20129999999999998         -2.0569406731615739E-004
  0.20215000000000000         -2.1563221481316671E-004
  0.20300000000000001         -2.2224147409043927E-004
  0.20384999999999998         -2.2682737255319159E-004
  0.20469999999999999         -2.3127881245676028E-004
  0.20555000000000001         -2.3806063518344193E-004
  0.20639999999999997         -2.5010075234362539E-004
  0.20724999999999999         -2.7068820918489569E-004
  0.20810000000000001         -3.0336277090815654E-004
  0.20894999999999997         -3.5176627006768495E-004
  0.20979999999999999         -4.1954582560663163E-004
  0.21065000000000000         -5.1028362693173910E-004
  0.21149999999999997         -6.2734488976072739E-004
  0.21234999999999998         -7.7404132230042186E-004
  0.21320000000000000         -9.5361585152940807E-004
  0.21404999999999996         -1.1693716625619719E-003
  0.21489999999999998         -1.4248359459461380E-003
  0.21575000000000000         -1.7240489347156338E-003
  0.21659999999999996         -2.0716437180213400E-003
  0.21744999999999998         -2.4731671414161042E-003
  0.21829999999999999         -2.9352762136559281E-003
  0.21915000000000001         -3.4658089425869060E-003
  0.21999999999999997         -4.0740207591963675E-003
  0.22084999999999999         -4.7705958403703062E-003
  0.22170000000000001         -5.5677482375633379E-003
  0.22254999999999997         -6.4791189157130495E-003
  0.22339999999999999         -7.5200761412732306E-003
  0.22425000000000000         -8.7072753266246635E-003
  0.22509999999999997         -1.0058898173842701E-002
  0.22594999999999998         -1.1594353351822838E-002
  0.22680000000000000         -1.3334867988893653E-002
  0.22764999999999996         -1.5302212241206859E-002
  0.22849999999999998         -1.7519908453433656E-002
  0.22935000000000000         -2.0012323061549219E-002
  0.23019999999999996         -2.2804458264374564E-002
  0.23104999999999998         -2.5922935139421358E-002
  0.23190000000000000         -2.9394880963942664E-002
  0.23275000000000001         -3.3247515807243049E-002
  0.23359999999999997         -3.7509985339663064E-002
  0.23444999999999999         -4.2212006129758055E-002
  0.23530000000000001         -4.7383053673804784E-002
  0.23614999999999997         -5.3054297501525557E-002
  0.23699999999999999         -5.9256126319129687E-002
  0.23785000000000001         -6.6019324846627356E-002
  0.23869999999999997         -7.3372570968464168E-002
  0.23954999999999999         -8.1344641030923912E-002
  0.24040000000000000         -8.9960108244722614E-002
  0.24124999999999996         -9.9241530485306553E-002
  0.24209999999999998        -0.10920764821766620
  0.24295000000000000        -0.11987309444324479
  0.24379999999999996        -0.13124477991435290
  0.24464999999999998        -0.14332894047373396
  0.24550000000000000        -0.15612151777036720
  0.24634999999999996        -0.16961283349290024
  0.24719999999999998        -0.18378435755393308
  0.24804999999999999        -0.19860893991174652
  0.24890000000000001        -0.21404744469657733
  0.24974999999999997        -0.23005042876935092
  0.25059999999999999        -0.24655679514512555
  0.25145000000000001        -0.26348636392254787
  0.25229999999999997        -0.28074807355399983
  0.25314999999999999        -0.29823491770065297
  0.25400000000000000        -0.31581570453008934
  0.25484999999999997        -0.33334865261676483
  0.25569999999999998        -0.35066428625583751
  0.25655000000000000        -0.36757131206701771
  0.25739999999999996        -0.38386276439145522
  0.25824999999999998        -0.39929998525948046
  0.25910000000000000        -0.41361770250219826
  0.25994999999999996        -0.42653047060144189
  0.26079999999999998        -0.43771635164287531
  0.26164999999999999        -0.44685021790366469
  0.26249999999999996        -0.45355981563008035
  0.26334999999999997        -0.45746594043378547
  0.26419999999999999        -0.45817098419972868
  0.26505000000000001        -0.45525274214069089
  0.26589999999999997        -0.44827511385637214
  0.26674999999999999        -0.43678759248994492
  0.26760000000000000        -0.42035220426456926
  0.26844999999999997        -0.39851573144912750
  0.26929999999999998        -0.37085149536659368
  0.27015000000000000        -0.33692123885866232
  0.27099999999999996        -0.29631513492079381
  0.27184999999999998        -0.24866434376014354
  0.27270000000000000        -0.19362684785020468
  0.27354999999999996        -0.13092195018849040
  0.27439999999999998         -6.0277181073165709E-002
  0.27524999999999999          1.8441733542417703E-002
  0.27609999999999996         0.10535868111856735
  0.27694999999999997         0.20047570321787486
  0.27779999999999999         0.30369642937033264
  0.27865000000000001         0.41483689215507796
  0.27949999999999997         0.53361300925336641
  0.28034999999999999         0.65955617719235771
  0.28120000000000001         0.79215205104115727
  0.28204999999999997         0.93067806987563473
  0.28289999999999998          1.0743074880352832
  0.28375000000000000          1.2220864972175158
  0.28459999999999996          1.3729096018871947
  0.28544999999999998          1.5255400286658969
  0.28630000000000000          1.6786056741776954
  0.28714999999999996          1.8305703313683623
  0.28799999999999998          1.9798172825571092
  0.28885000000000000          2.1246702253373559
  0.28969999999999996          2.2633192471144201
  0.29054999999999997          2.3938326741434111
  0.29139999999999999          2.5143307899139784
  0.29224999999999995          2.6228161376204469
  0.29309999999999997          2.7173896939868847
  0.29394999999999999          2.7960539226365175
  0.29480000000000001          2.8569843858178134
  0.29564999999999997          2.8983082398856479
  0.29649999999999999          2.9183651416407814
  0.29735000000000000          2.9155550535066657
  0.29819999999999997          2.8884941722703603
  0.29904999999999998          2.8359440214274998
  0.29990000000000000          2.7568799691832733
  0.30074999999999996          2.6505417529867321
  0.30159999999999998          2.5164665415115062
  0.30245000000000000          2.3544281045931994
  0.30329999999999996          2.1645205490232144
  0.30414999999999998          1.9471784341340110
  0.30499999999999999          1.7031410552124935
  0.30584999999999996          1.4335043933752500
  0.30669999999999997          1.1397000855290476
  0.30754999999999999         0.82347455621098453
  0.30840000000000001         0.48694046197498081
  0.30924999999999997         0.13244725623577552
  0.31009999999999999        -0.23730785710889005
  0.31095000000000000        -0.61933350485375516
  0.31179999999999997         -1.0104217585011814
  0.31264999999999998         -1.4071901720440081
  0.31350000000000000         -1.8060399584690623
  0.31434999999999996         -2.2032252054708481
  0.31519999999999998         -2.5949446863293799
  0.31605000000000000         -2.9773014098722328
  0.31689999999999996         -3.3464278708268278
  0.31774999999999998         -3.6984894903901506
  0.31859999999999999         -4.0297679820180967
  0.31944999999999996         -4.3366764858509379
  0.32029999999999997         -4.6158034531079242
  0.32114999999999999         -4.8639775839796915
  0.32199999999999995         -5.0783126989020104
  0.32284999999999997         -5.2562112704524946
  0.32369999999999999         -5.3955099010308443
  0.32455000000000001         -5.4943238404909902
  0.32539999999999997         -5.5512055445215793
  0.32624999999999998         -5.5651500399710434
  0.32710000000000000         -5.5355908011324608
  0.32794999999999996         -5.4623841439350267
  0.32879999999999998         -5.3459770396435875
  0.32965000000000000         -5.1871436229756895
  0.33049999999999996         -4.9871173593080975
  0.33134999999999998         -4.7476519093146727
  0.33220000000000000         -4.4708510233746930
  0.33304999999999996         -4.1592605844189166
  0.33389999999999997         -3.8157037242476783
  0.33474999999999999         -3.4434339947146824
  0.33559999999999995         -3.0459506213887200
  0.33644999999999997         -2.6270072862257199
  0.33729999999999999         -2.1904901532174987
  0.33815000000000001         -1.7405178381714337
  0.33899999999999997         -1.2813181099545945
  0.33984999999999999        -0.81712397551104399
  0.34070000000000000        -0.35208564226387129
  0.34154999999999996         0.10952551151726762
  0.34239999999999998         0.56371312305884236
  0.34325000000000000          1.0063764815413556
  0.34409999999999996          1.4338694044178311
  0.34494999999999998          1.8425344999259825
  0.34580000000000000          2.2291227877861433
  0.34664999999999996          2.5905422999334426
  0.34749999999999998          2.9241939269883601
  0.34834999999999999          3.2276854792238865
  0.34919999999999995          3.4991112777312372
  0.35004999999999997          3.7369002456090081
  0.35089999999999999          3.9397993054425813
  0.35174999999999995          4.1070155773949715
  0.35259999999999997          4.2381933541681036
  0.35344999999999999          4.3332210477798858