 -0.12000000000000000          0.0000000000000000
 -0.11914999999999999          0.0000000000000000
 -0.11830000000000000          0.0000000000000000
 -0.11745000000000000          0.0000000000000000
 -0.11660000000000000          0.0000000000000000
 -0.11574999999999999          0.0000000000000000
 -0.11490000000000000          0.0000000000000000
 -0.11405000000000000          0.0000000000000000
 -0.11320000000000000          0.0000000000000000
 -0.11234999999999999          0.0000000000000000
 -0.11150000000000000          0.0000000000000000
 -0.11065000000000000          0.0000000000000000
 -0.10979999999999999          1.2588322748080381E-035
 -0.10894999999999999          2.3299890504729070E-034
 -0.10810000000000000          1.9800676328223824E-033
 -0.10725000000000000          9.8043528821576099E-033
 -0.10639999999999999          2.6794799350002810E-032
 -0.10554999999999999          2.8035205295647157E-033
 -0.10470000000000000         -3.5502406635940369E-031
 -0.10385000000000000         -1.9309125454258953E-030
 -0.10299999999999999         -6.1527699614931374E-030
 -0.10214999999999999         -1.2497001020812709E-029
 -0.10130000000000000         -9.8134204526263819E-030
 -0.10045000000000000          4.0142232407096785E-029
  -9.9599999999999994E-002     2.1456769660214417E-028
  -9.8750000000000004E-002     5.9206432922013277E-028
  -9.7900000000000001E-002     1.0827697158983794E-027
  -9.7049999999999997E-002     1.0564533580295984E-027
  -9.6199999999999994E-002    -1.1290096539819602E-027
  -9.5349999999999990E-002    -8.1681978205432145E-027
  -9.4500000000000001E-002    -2.2284052565635796E-026
  -9.3649999999999997E-002    -4.0719791582807419E-026
  -9.2799999999999994E-002    -4.7870385691529319E-026
  -9.1950000000000004E-002    -7.2290262681424463E-027
  -9.1100000000000000E-002     1.3736401665888987E-025
  -9.0249999999999997E-002     4.3503135526813787E-025
  -8.9399999999999993E-002     8.5919033366157670E-025
  -8.8549999999999990E-002     1.1964419054066837E-024
  -8.7700000000000000E-002     9.3420681578365480E-025
  -8.6849999999999997E-002    -7.4642560362282320E-025
  -8.5999999999999993E-002    -4.7032264998718353E-024
  -8.5150000000000003E-002    -1.1119236870409690E-023
  -8.4300000000000000E-002    -1.8313287228337323E-023
  -8.3449999999999996E-002    -2.1400341780201493E-023
  -8.2600000000000007E-002    -1.1681679440214163E-023
  -8.1749999999999989E-002     2.1790021499543174E-023
  -8.0900000000000000E-002     8.6867443579658083E-023
  -8.0049999999999996E-002     1.7843047876108073E-022
  -7.9199999999999993E-002     2.6560356234612670E-022
  -7.8350000000000003E-002     2.8165248565887148E-022
  -7.7499999999999999E-002     1.2661502584906755E-022
  -7.6649999999999996E-002    -3.0480153302819981E-022
  -7.5800000000000006E-002    -1.0607659209135268E-021
  -7.4949999999999989E-002    -2.0386592595691768E-021
  -7.4099999999999999E-002    -2.8866952250573410E-021
  -7.3249999999999996E-002    -2.9564532651306083E-021
  -7.2399999999999992E-002    -1.3846499045004985E-021
  -7.1550000000000002E-002     2.6208230764615121E-021
  -7.0699999999999999E-002     9.2658069332313913E-021
  -6.9849999999999995E-002     1.7508917089277161E-020
  -6.9000000000000006E-002     2.4490130097781349E-020
  -6.8149999999999988E-002     2.5431593551670978E-020
  -6.7299999999999999E-002     1.4451418294636249E-020
  -6.6449999999999995E-002    -1.3397731066019608E-020
  -6.5599999999999992E-002    -5.8939012767713784E-020
  -6.4750000000000002E-002    -1.1523076878646680E-019
  -6.3899999999999998E-002    -1.6489372805971426E-019
  -6.3049999999999995E-002    -1.8034600748392283E-019
  -6.2199999999999998E-002    -1.2883347249196211E-019
  -6.1350000000000002E-002     1.6812480024232900E-020
  -6.0499999999999998E-002     2.6271717878125577E-019
  -5.9650000000000002E-002     5.7749695168396305E-019
  -5.8799999999999998E-002     8.8107172408612784E-019
  -5.7950000000000002E-002     1.0464230051779973E-018
  -5.7099999999999998E-002     9.2093125272846996E-019
  -5.6249999999999994E-002     3.6969975697191760E-019
  -5.5400000000000005E-002    -6.6397252145116250E-019
  -5.4550000000000001E-002    -2.0946294019420945E-018
  -5.3699999999999998E-002    -3.6486388101863353E-018
  -5.2849999999999994E-002    -4.8609673218764335E-018
  -5.2000000000000005E-002    -5.1357117368549977E-018
  -5.1150000000000001E-002    -3.8787450134647020E-018
  -5.0299999999999997E-002    -6.9062396800647270E-019
  -4.9449999999999994E-002     4.4159780997038388E-018
  -4.8600000000000004E-002     1.0831299104198370E-017
  -4.7750000000000001E-002     1.7264288140339709E-017
  -4.6899999999999997E-002     2.1822864710137440E-017
  -4.6049999999999994E-002     2.2298379467680256E-017
  -4.5200000000000004E-002     1.6652140303152146E-017
  -4.4350000000000001E-002     3.6478429483226856E-018
  -4.3499999999999997E-002    -1.6482686092229146E-017
  -4.2649999999999993E-002    -4.1499326074075015E-017
  -4.1800000000000004E-002    -6.6921438251311149E-017
  -4.0950000000000000E-002    -8.6275168726721480E-017
  -4.0099999999999997E-002    -9.1938243833073319E-017
  -3.9249999999999993E-002    -7.6600561013773728E-017
  -3.8400000000000004E-002    -3.5217826664980358E-017
  -3.7550000000000000E-002     3.2830375977333841E-017
  -3.6699999999999997E-002     1.2182903455265924E-016
  -3.5850000000000007E-002     2.1863064296531384E-016
  -3.5000000000000003E-002     3.0296125069439537E-016
  -3.4150000000000000E-002     3.4959395975851528E-016
  -3.3299999999999996E-002     3.3255712975969275E-016
  -3.2450000000000007E-002     2.3108859297711030E-016
  -3.1600000000000003E-002     3.6494620009553632E-017
  -3.0750000000000000E-002    -2.4145887958869570E-016
  -2.9899999999999996E-002    -5.7034941924864331E-016
  -2.9050000000000006E-002    -8.9483837819393832E-016
  -2.8200000000000003E-002    -1.1416573322987442E-015
  -2.7349999999999999E-002    -1.2302498300918607E-015
  -2.6499999999999996E-002    -1.0882321540360482E-015
  -2.5650000000000006E-002    -6.6948216539361535E-016
  -2.4800000000000003E-002     2.8479547817315309E-017
  -2.3949999999999999E-002     9.5174837691748265E-016
  -2.3099999999999996E-002     1.9856818567325823E-015
  -2.2250000000000006E-002     2.9616133395970153E-015
  -2.1400000000000002E-002     3.6755163990821975E-015
  -2.0549999999999999E-002     3.9173068866635944E-015
  -1.9699999999999995E-002     3.5072987233913393E-015
  -1.8850000000000006E-002     2.3346683407552961E-015
  -1.8000000000000002E-002     3.9192659786230859E-016
  -1.7149999999999999E-002    -2.2004861505964568E-015
  -1.6299999999999995E-002    -5.1843564392507931E-015
  -1.5450000000000005E-002    -8.1719464388383988E-015
  -1.4600000000000002E-002    -1.0673893679849867E-014
  -1.3749999999999998E-002    -1.2146474707808957E-014
  -1.2899999999999995E-002    -1.2056307508019194E-014
  -1.2050000000000005E-002    -9.9590738684474196E-015
  -1.1200000000000002E-002    -5.5873334807918177E-015
  -1.0349999999999998E-002     1.0596579065917437E-015
  -9.5000000000000084E-003     9.6341687362976103E-015
  -8.6500000000000049E-003     1.9379636634225741E-014
  -7.8000000000000014E-003     2.9108740226772180E-014
  -6.9499999999999978E-003     3.7239595851461289E-014
  -6.1000000000000082E-003     4.1909699311517516E-014
  -5.2500000000000047E-003     4.1182308841876860E-014
  -4.4000000000000011E-003     3.3348192589389488E-014
  -3.5499999999999976E-003     1.7307205854669836E-014
  -2.7000000000000079E-003    -7.0101584336560971E-015
  -1.8500000000000044E-003    -3.8248837354539034E-014
  -1.0000000000000009E-003    -7.3354947719631391E-014
  -1.4999999999999736E-004    -1.0752582072184725E-013
   6.9999999999999230E-004    -1.3448162035764160E-013
   1.5499999999999958E-003    -1.4712287448134761E-013
   2.3999999999999994E-003    -1.3857801184771878E-013
   3.2500000000000029E-003    -1.0356115737450460E-013
   4.0999999999999925E-003    -3.9867062795988721E-014
   4.9499999999999961E-003     5.0253207875556754E-014
   5.7999999999999996E-003     1.5914470944308181E-013
   6.6499999999999893E-003     2.7353906467547873E-013
   7.5000000000000067E-003     3.7533062479192700E-013
   8.3499999999999963E-003     4.4345858032862763E-013
   9.1999999999999860E-003     4.5683287070373964E-013
   1.0050000000000003E-002     3.9803126060834103E-013
   1.0899999999999993E-002     2.5729110614928838E-013
   1.1750000000000010E-002     3.6162065068563115E-014
   1.2600000000000000E-002    -2.4989556641518043E-013
   1.3449999999999990E-002    -5.7065977133181909E-013
   1.4300000000000007E-002    -8.8259157051255596E-013
   1.5149999999999997E-002    -1.1328570525391113E-012
   1.5999999999999986E-002    -1.2658412645721209E-012
   1.6850000000000004E-002    -1.2316342612089146E-012
   1.7699999999999994E-002    -9.9552481536958237E-013
   1.8549999999999983E-002    -5.4713954653106732E-013
   1.9400000000000001E-002     9.2390464330461876E-014
   2.0249999999999990E-002     8.6687482542993306E-013
   2.1100000000000008E-002     1.6864935205445851E-012
   2.1949999999999997E-002     2.4350141113529575E-012
   2.2799999999999987E-002     2.9827603213140564E-012
   2.3650000000000004E-002     3.2042772957319934E-012
   2.4499999999999994E-002     2.9986181782183422E-012
   2.5349999999999984E-002     2.3093829532092702E-012
   2.6200000000000001E-002     1.1412510212096864E-012
   2.7049999999999991E-002    -4.3011557429746442E-013
   2.7900000000000008E-002    -2.2572364710103090E-012
   2.8749999999999998E-002    -4.1303105363127380E-012
   2.9599999999999987E-002    -5.7968252344673847E-012
   3.0450000000000005E-002    -6.9895850103948212E-012
   3.1299999999999994E-002    -7.4602282930314462E-012
   3.2149999999999984E-002    -7.0144649456700981E-012
   3.3000000000000002E-002    -5.5449022187209960E-012
   3.3849999999999991E-002    -3.0574590882279521E-012
   3.4700000000000009E-002     3.1211308253377091E-013
   3.5549999999999998E-002     4.2943117952558639E-012
   3.6399999999999988E-002     8.4963895862796211E-012
   3.7250000000000005E-002     1.2428137452797985E-011
   3.8099999999999995E-002     1.5542647790532164E-011
   3.8949999999999985E-002     1.7290353658573338E-011
   3.9800000000000002E-002     1.7183121770243491E-011
   4.0649999999999992E-002     1.4863541321324202E-011
   4.1500000000000009E-002     1.0173030224746242E-011
   4.2349999999999999E-002     3.2111409652064616E-012
   4.3199999999999988E-002    -5.6223963083098397E-012
   4.4050000000000006E-002    -1.5611524051990168E-011
   4.4899999999999995E-002    -2.5741494741763005E-011
   4.5749999999999985E-002    -3.4756432526137870E-011
   4.6600000000000003E-002    -4.1260181792071005E-011
   4.7449999999999992E-002    -4.3859736716164348E-011
   4.8299999999999982E-002    -4.1345064345841511E-011
   4.9149999999999999E-002    -3.2892194899262736E-011
   4.9999999999999989E-002    -1.8268594140695798E-011
   5.0850000000000006E-002     1.9883485310746691E-012
   5.1699999999999996E-002     2.6454976468394250E-011
   5.2549999999999986E-002     5.2803760916787822E-011
   5.3400000000000003E-002     7.7915464644391113E-011
   5.4249999999999993E-002     9.8138823396191992E-011
   5.5099999999999982E-002     1.0969427461474695E-010
   5.5950000000000000E-002     1.0919100391826688E-010
   5.6799999999999989E-002     9.4197796860096910E-011
   5.7650000000000007E-002     6.3784970550729405E-011
   5.8499999999999996E-002     1.8944333184532325E-011
   5.9349999999999986E-002    -3.7199884280269784E-011
   6.0200000000000004E-002    -9.9453935883458007E-011
   6.1049999999999993E-002    -1.6091913499518459E-010
   6.1899999999999983E-002    -2.1364013148895815E-010
   6.2750000000000000E-002    -2.4947328977442660E-010
   6.3599999999999990E-002    -2.6107737801787084E-010
   6.4450000000000007E-002    -2.4291165969119455E-010
   6.5299999999999997E-002    -1.9212679931317390E-010
   6.6149999999999987E-002    -1.0924847347113700E-010
   6.7000000000000004E-002     1.4243993709133311E-012
   6.7849999999999994E-002     1.3176056118629829E-010
   6.8699999999999983E-002     2.7010928336581085E-010
   6.9550000000000001E-002     4.0200207800715096E-010
   7.0399999999999990E-002     5.1124504378996393E-010
   7.1249999999999980E-002     5.8137935855206031E-010
   7.2099999999999997E-002     5.9744721998506749E-010
   7.2949999999999987E-002     5.4794537615095175E-010
   7.3800000000000004E-002     4.2678488318084407E-010
   7.4649999999999994E-002     2.3501567321849300E-010
   7.5499999999999984E-002    -1.7967773644765856E-011
   7.6350000000000001E-002    -3.1402241009616383E-010
   7.7199999999999991E-002    -6.2687597904811404E-010
   7.8049999999999981E-002    -9.2387310477810809E-010
   7.8899999999999998E-002    -1.1687977709674131E-009
   7.9749999999999988E-002    -1.3255599288946249E-009
   8.0600000000000005E-002    -1.3623885829208169E-009
   8.1449999999999995E-002    -1.2560648295090413E-009
   8.2299999999999984E-002    -9.9568896349967443E-010
   8.3150000000000002E-002    -5.8550937064746545E-010
   8.3999999999999991E-002    -4.6441616029566588E-011
   8.4849999999999981E-002     5.8397012867223135E-010
   8.5699999999999998E-002     1.2532671132646562E-009
   8.6549999999999988E-002     1.8974571268537226E-009
   8.7400000000000005E-002     2.4459258521335937E-009
   8.8249999999999995E-002     2.8276152699668611E-009
   8.9099999999999985E-002     2.9780904442077324E-009
   8.9950000000000002E-002     2.8469897330106857E-009
   9.0799999999999992E-002     2.4052102252616131E-009
   9.1649999999999981E-002     1.6510566671962541E-009
   9.2499999999999999E-002     6.1451926938518779E-010
   9.3349999999999989E-002    -6.4111935005233329E-010
   9.4200000000000006E-002    -2.0209787404646964E-009
   9.5049999999999996E-002    -3.4039205621533004E-009
   9.5899999999999985E-002    -4.6514777974324660E-009
   9.6750000000000003E-002    -5.6198599105446636E-009
   9.7599999999999992E-002    -6.1740866362615970E-009
   9.8449999999999982E-002    -6.2029213891953544E-009
   9.9299999999999999E-002    -5.6330659385054984E-009
  0.10014999999999999         -4.4410534424703506E-009
  0.10099999999999998         -2.6614128430475592E-009
  0.10185000000000000         -3.8996329133712261E-010
  0.10269999999999999          2.2185190144733665E-009
  0.10355000000000000          4.9585513494566276E-009
  0.10439999999999999          7.5878958022082014E-009
  0.10524999999999998          9.8464820375357860E-009
  0.10610000000000000          1.1479042909105034E-008
  0.10694999999999999          1.2259743751100554E-008
  0.10779999999999998          1.2016695657836578E-008
  0.10865000000000000          1.0653979690924839E-008
  0.10949999999999999          8.1687595488778903E-009
  0.11035000000000000          4.6612435184641844E-009
  0.11119999999999999          3.3577613210237649E-010
  0.11204999999999998         -4.5078881788280100E-009
  0.11290000000000000         -9.4931490177729074E-009
  0.11374999999999999         -1.4193959506349078E-008
  0.11459999999999998         -1.8169084381006202E-008
  0.11545000000000000         -2.1000406543167047E-008
  0.11629999999999999         -2.2332005001273768E-008
  0.11715000000000000         -2.1906532438295665E-008
  0.11799999999999999         -1.9595534960122711E-008
  0.11884999999999998         -1.5420723270134345E-008
  0.11970000000000000         -9.5638409395780076E-009
  0.12054999999999999         -2.3635855297923920E-009
  0.12139999999999998          5.7010592446794377E-009
  0.12225000000000000          1.4040592931802187E-008
  0.12309999999999999          2.1996356446416037E-008
  0.12395000000000000          2.8890791525843228E-008
  0.12479999999999999          3.4082840187875948E-008
  0.12564999999999998          3.7023930448596595E-008
  0.12650000000000000          3.7309611191550876E-008
  0.12734999999999999          3.4721952950704714E-008
  0.12819999999999998          2.9258392581023010E-008
  0.12905000000000000          2.1143822078336261E-008
  0.12989999999999999          1.0824285117175686E-008
  0.13074999999999998         -1.0576887297232897E-009
  0.13159999999999999         -1.3704425607196685E-008
  0.13245000000000001         -2.6217965755789012E-008
  0.13329999999999997         -3.7664251458237939E-008
  0.13414999999999999         -4.7141744118288228E-008
  0.13500000000000001         -5.3849359273256495E-008
  0.13584999999999997         -5.7148837300836538E-008
  0.13669999999999999         -5.6616976521306469E-008
  0.13755000000000001         -5.2084005862612209E-008
  0.13839999999999997         -4.3655124828489473E-008
  0.13924999999999998         -3.1713234263258848E-008
  0.14010000000000000         -1.6902247142923735E-008
  0.14094999999999996         -9.1653978703210069E-011
  0.14179999999999998          1.7675679042527211E-008
  0.14265000000000000          3.5249087973845060E-008
  0.14350000000000002          5.1444847512666231E-008
  0.14434999999999998          6.5125114474283141E-008
  0.14520000000000000          7.5275825425647667E-008
  0.14605000000000001          8.1078251987747821E-008
  0.14689999999999998          8.1969415533125641E-008
  0.14774999999999999          7.7687408899000322E-008
  0.14860000000000001          6.8298487951555728E-008
  0.14944999999999997          5.4203635206062483E-008
  0.15029999999999999          3.6123338995789562E-008
  0.15115000000000001          1.5060751864789896E-008
  0.15199999999999997         -7.7550364099874555E-009
  0.15284999999999999         -3.0942394827690864E-008
  0.15370000000000000         -5.3053096432246680E-008
  0.15454999999999997         -7.2665672632694368E-008
  0.15539999999999998         -8.8479460612284273E-008
  0.15625000000000000         -9.9402324605431638E-008
  0.15709999999999996         -1.0462587351928693E-007
  0.15794999999999998         -1.0368298988524900E-007
  0.15880000000000000         -9.6483809850573294E-008
  0.15965000000000001         -8.3327851134481984E-008
  0.16049999999999998         -6.4891516979949371E-008
  0.16134999999999999         -4.2191113724295435E-008
  0.16220000000000001         -1.6522520884516509E-008
  0.16304999999999997          1.0619809752211911E-008
  0.16389999999999999          3.7638902378263155E-008
  0.16475000000000001          6.2938253086432481E-008
  0.16559999999999997          8.5024020342898486E-008
  0.16644999999999999          1.0260048525930845E-007
  0.16730000000000000          1.1465275342691646E-007
  0.16814999999999997          1.2050691526872458E-007
  0.16899999999999998          1.1985803005014850E-007
  0.16985000000000000          1.1276270814924111E-007
  0.17069999999999996          9.9600370840606903E-008
  0.17154999999999998          8.1009219439561536E-008
  0.17240000000000000          5.7804132443160182E-008
  0.17325000000000002          3.0884699310835596E-008
  0.17409999999999998          1.1431446302598704E-009
  0.17494999999999999         -3.0615988910315544E-008
  0.17580000000000001         -6.3739360459054398E-008
  0.17664999999999997         -9.7772332279470630E-008
  0.17749999999999999         -1.3248393256512328E-007
  0.17835000000000001         -1.6786353285648353E-007
  0.17919999999999997         -2.0408919996646049E-007
  0.18004999999999999         -2.4147996437295855E-007
  0.18090000000000001         -2.8044908122848269E-007
  0.18174999999999997         -3.2145776261516271E-007
  0.18259999999999998         -3.6496965285442577E-007
  0.18345000000000000         -4.1141117130087131E-007
  0.18429999999999996         -4.6115974360702087E-007
  0.18514999999999998         -5.1456944230757399E-007
  0.18600000000000000         -5.7202841089069583E-007
  0.18684999999999996         -6.3403529950665776E-007
  0.18769999999999998         -7.0129084597737099E-007
  0.18855000000000000         -7.7480750211082175E-007
  0.18940000000000001         -8.5600614331039764E-007
  0.19024999999999997         -9.4678319027235518E-007
  0.19109999999999999         -1.0495397253911127E-006
  0.19195000000000001         -1.1671759684576245E-006
  0.19279999999999997         -1.3030679597569334E-006
  0.19364999999999999         -1.4610042759088977E-006
  0.19450000000000001         -1.6450474232822793E-006
  0.19534999999999997         -1.8593858681969296E-006
  0.19619999999999999         -2.1082587825442229E-006
  0.19705000000000000         -2.3959570598490216E-006
  0.19789999999999996         -2.7268047449553839E-006
  0.19874999999999998         -3.1050441108472803E-006
  0.19960000000000000         -3.5345995113640323E-006
  0.20044999999999996         -4.0189787918501752E-006
  0.20129999999999998         -4.5614321769922787E-006
  0.20215000000000000         -5.1651996937980835E-006
  0.20300000000000001         -5.8336371954709493E-006
  0.20384999999999998         -6.5700320983661808E-006
  0.20469999999999999         -7.3774684509450107E-006
  0.20555000000000001         -8.2589776986728197E-006
  0.20639999999999997         -9.2176744133251159E-006
  0.20724999999999999         -1.0256785356697729E-005
  0.20810000000000001         -1.1379399422212536E-005
  0.20894999999999997         -1.2588043002755835E-005
  0.20979999999999999         -1.3884450520062924E-005
  0.21065000000000000         -1.5269186433237963E-005
  0.21149999999999997         -1.6741104183077615E-005
  0.21234999999999998         -1.8296637942343722E-005
  0.21320000000000000         -1.9929604419778853E-005
  0.21404999999999996         -2.1631530763359177E-005
  0.21489999999999998         -2.3391574801946824E-005
  0.21575000000000000         -2.5195513499308496E-005
  0.21659999999999996         -2.7024554305259445E-005
  0.21744999999999998         -2.8855372089245639E-005
  0.21829999999999999         -3.0659848411793326E-005
  0.21915000000000001         -3.2404241100889934E-005
  0.21999999999999997         -3.4048913329524000E-005
  0.22084999999999999         -3.5547431744828328E-005
  0.22170000000000001         -3.6845555938132522E-005
  0.22254999999999997         -3.7880342392074731E-005
  0.22339999999999999         -3.8578921727989204E-005
  0.22425000000000000         -3.8857972756812354E-005
  0.22509999999999997         -3.8624061031556804E-005
  0.22594999999999998         -3.7773563425490270E-005
  0.22680000000000000         -3.6190859759623634E-005
  0.22764999999999996         -3.3746492232752712E-005
  0.22849999999999998         -3.0295529456209107E-005
  0.22935000000000000         -2.5679438244241429E-005
  0.23019999999999996         -1.9728974940111239E-005
  0.23104999999999998         -1.2261569593377655E-005
  0.23190000000000000         -3.0779203939541102E-006
  0.23275000000000001          8.0384841578256066E-006
  0.23359999999999997          2.1316492145939870E-005
  0.23444999999999999          3.6991685187694016E-005
  0.23530000000000001          5.5306452454943183E-005
  0.23614999999999997          7.6515111019856484E-005
  0.23699999999999999          1.0088504130711424E-004
  0.23785000000000001          1.2869155647674156E-004
  0.23869999999999997          1.6021100561429175E-004
  0.23954999999999999          1.9571735998430098E-004
  0.24040000000000000          2.3548444047511563E-004
  0.24124999999999996          2.7978548766654371E-004
  0.24209999999999998          3.2888564374391793E-004
  0.24295000000000000          3.8303351002816571E-004
  0.24379999999999996          4.4245785730418993E-004
  0.24464999999999998          5.0736139888274672E-004
  0.24550000000000000          5.7791527408074424E-004
  0.24634999999999996          6.5425193764556233E-004
  0.24719999999999998          7.3645866825472234E-004
  0.24804999999999999          8.2457469145338479E-004
  0.24890000000000001          9.1858292766045001E-004
  0.24974999999999997          1.0183964254824463E-003
  0.25059999999999999          1.1238443618684689E-003
  0.25145000000000001          1.2346693286145144E-003
  0.25229999999999997          1.3505266567882604E-003
  0.25314999999999999          1.4709764228599367E-003
  0.25400000000000000          1.5954734185763529E-003
  0.25484999999999997          1.7233550964836513E-003
  0.25569999999999998          1.8538413222849459E-003
  0.25655000000000000          1.9860373054839770E-003
  0.25739999999999996          2.1189263148784507E-003
  0.25824999999999998          2.2513594987783100E-003
  0.25910000000000000          2.3820565746082434E-003
  0.25994999999999996          2.5096199120638865E-003
  0.26079999999999998          2.6325353283306908E-003
  0.26164999999999999          2.7491616489485433E-003
  0.26249999999999996          2.8577210564446204E-003
  0.26334999999999997          2.9563140108958535E-003
  0.26419999999999999          3.0429546401100844E-003
  0.26505000000000001          3.1155908864834432E-003
  0.26589999999999997          3.1721034467265879E-003
  0.26674999999999999          3.2103081728227971E-003
  0.26760000000000000          3.2279826292833584E-003
  0.26844999999999997          3.2229104606348608E-003
  0.26929999999999998          3.1929161553112969E-003
  0.27015000000000000          3.1358747216106131E-003
  0.27099999999999996          3.0497245113300289E-003
  0.27184999999999998          2.9325077100702548E-003
  0.27270000000000000          2.7824238755893441E-003
  0.27354999999999996          2.5978578612281741E-003
  0.27439999999999998          2.3773961412255264E-003
  0.27524999999999999          2.1198626769425534E-003
  0.27609999999999996          1.8243696265357982E-003
  0.27694999999999997          1.4903699822233958E-003
  0.27779999999999999          1.1176772665313450E-003
  0.27865000000000001          7.0646777725930500E-004
  0.27949999999999997          2.5730106322404680E-004
  0.28034999999999999         -2.2883287217836620E-004
  0.28120000000000001         -7.5048238176136668E-004
  0.28204999999999997         -1.3057202395463027E-003
  0.28289999999999998         -1.8921414253625130E-003
  0.28375000000000000         -2.5068866016622329E-003
  0.28459999999999996         -3.1466338176065738E-003
  0.28544999999999998         -3.8075708326741802E-003
  0.28630000000000000         -4.4853983769301952E-003
  0.28714999999999996         -5.1753632142624165E-003
  0.28799999999999998         -5.8723104702117892E-003
  0.28885000000000000         -6.5707125260245558E-003
  0.28969999999999996         -7.2646967455416165E-003
  0.29054999999999997         -7.9480981213634443E-003
  0.29139999999999999         -8.6145148095942078E-003
  0.29224999999999995         -9.2573660947556057E-003
  0.29309999999999997         -9.8699465075020899E-003
  0.29394999999999999         -1.0445511689642695E-002
  0.29480000000000001         -1.0977376541438863E-002
  0.29564999999999997         -1.1458976119618564E-002
  0.29649999999999999         -1.1883909018672385E-002
  0.29735000000000000         -1.2246008356197833E-002
  0.29819999999999997         -1.2539459085340671E-002
  0.29904999999999998         -1.2758916590386233E-002
  0.29990000000000000         -1.2899559423457194E-002
  0.30074999999999996         -1.2957117474955735E-002
  0.30159999999999998         -1.2927941209932825E-002
  0.30245000000000000         -1.2809097239642606E-002
  0.30329999999999996         -1.2598445544558396E-002
  0.30414999999999998         -1.2294656593214812E-002
  0.30499999999999999         -1.1897227380659001E-002
  0.30584999999999996         -1.1406528673107912E-002
  0.30669999999999997         -1.0823852892511639E-002
  0.30754999999999999         -1.0151420578043748E-002
  0.30840000000000001         -9.3923582373137277E-003
  0.30924999999999997         -8.5506901754980203E-003
  0.31009999999999999         -7.6313329560129843E-003
  0.31095000000000000         -6.6400689211882791E-003
  0.31179999999999997         -5.5834613991751310E-003
  0.31264999999999998         -4.4687773377211524E-003
  0.31350000000000000         -3.3039491595634272E-003
  0.31434999999999996         -2.0975233028960034E-003
  0.31519999999999998         -8.5858904333338884E-004
  0.31605000000000000          4.0334635941214887E-004
  0.31689999999999996          1.6784915708290935E-003
  0.31774999999999998          2.9568451604788026E-003
  0.31859999999999999          4.2282581598840577E-003
  0.31944999999999996          5.4825246542704199E-003
  0.32029999999999997          6.7095371112225761E-003
  0.32114999999999999          7.8994544830809661E-003
  0.32199999999999995          9.0427895700493470E-003
  0.32284999999999997          1.0130454654698376E-002
  0.32369999999999999          1.1153828735444741E-002
  0.32455000000000001          1.2104879794293623E-002
  0.32539999999999997          1.2976298033363622E-002
  0.32624999999999998          1.3761565359025413E-002
  0.32710000000000000          1.4454967174287474E-002
  0.32794999999999996          1.5051619556335976E-002
  0.32879999999999998          1.5547551477136544E-002
  0.32965000000000000          1.5939788781231066E-002
  0.33049999999999996          1.6226365732275386E-002
  0.33134999999999998          1.6406287549084804E-002
  0.33220000000000000          1.6479515777405602E-002
  0.33304999999999996          1.6446983725465571E-002
  0.33389999999999997          1.6310601091453204E-002
  0.33474999999999999          1.6073195821690315E-002
  0.33559999999999995          1.5738435043236160E-002
  0.33644999999999997          1.5310776471227810E-002
  0.33729999999999999          1.4795420919565996E-002
  0.33815000000000001          1.4198253523086388E-002
  0.33899999999999997          1.3525756060413724E-002
  0.33984999999999999          1.2784927499590242E-002
  0.34070000000000000          1.1983194804567051E-002
  0.34154999999999996          1.1128321657047144E-002
  0.34239999999999998          1.0228323808454193E-002
  0.34325000000000000          9.2913790411874413E-003