 -0.12000000000000000          0.0000000000000000
 -0.11914999999999999          0.0000000000000000
 -0.11830000000000000          0.0000000000000000
 -0.11745000000000000          0.0000000000000000
 -0.11660000000000000          0.0000000000000000
 -0.11574999999999999          0.0000000000000000
 -0.11490000000000000          0.0000000000000000
 -0.11405000000000000          0.0000000000000000
 -0.11320000000000000          0.0000000000000000
 -0.11234999999999999         -4.3870788317654973E-030
 -0.11150000000000000         -7.6466957912933265E-029
 -0.11065000000000000         -6.6935830685354154E-028
 -0.10979999999999999         -3.8940912358727284E-027
 -0.10894999999999999         -1.6767614699989260E-026
 -0.10810000000000000         -5.6141054555238026E-026
 -0.10725000000000000         -1.4833249921750458E-025
 -0.10639999999999999         -3.0128038836710486E-025
 -0.10554999999999999         -4.0867633938535610E-025
 -0.10470000000000000         -5.0470562215590241E-026
 -0.10385000000000000          1.7654644066023959E-024
 -0.10299999999999999          6.6679287887113563E-024
 -0.10214999999999999          1.6228851176541187E-023
 -0.10130000000000000          2.9736420147551304E-023
 -0.10045000000000000          3.9991152194571798E-023
  -9.9599999999999994E-002     2.8094695696112863E-023
  -9.8750000000000004E-002    -3.9102075893243761E-023
  -9.7900000000000001E-002    -2.0205252095122366E-022
  -9.7049999999999997E-002    -4.8391166884770344E-022
  -9.6199999999999994E-002    -8.4421816472224561E-022
  -9.5349999999999990E-002    -1.1194053932554112E-021
  -9.4500000000000001E-002    -9.7935270933568662E-022
  -9.3649999999999997E-002     4.9288851946977612E-023
  -9.2799999999999994E-002     2.4347630049519574E-021
  -9.1950000000000004E-002     6.3337650977905828E-021
  -9.1100000000000000E-002     1.1163856289716455E-020
  -9.0249999999999997E-002     1.5199382007430185E-020
  -8.9399999999999993E-002     1.5443805165564422E-020
  -8.8549999999999990E-002     8.0759498376376001E-021
  -8.7700000000000000E-002    -1.0321542264397194E-020
  -8.6849999999999997E-002    -4.0803717322010127E-020
  -8.5999999999999993E-002    -7.9822992488840973E-020
  -8.5150000000000003E-002    -1.1755735270738652E-019
  -8.4300000000000000E-002    -1.3786792041858452E-019
  -8.3449999999999996E-002    -1.2077431384104552E-019
  -8.2600000000000007E-002    -4.7699734076877869E-020
  -8.1749999999999989E-002     9.1242805914934472E-020
  -8.0900000000000000E-002     2.8965783892463843E-019
  -8.0049999999999996E-002     5.1931357899082323E-019
  -7.9199999999999993E-002     7.2886182192312107E-019
  -7.8350000000000003E-002     8.4821855445818884E-019
  -7.7499999999999999E-002     7.9873524598741371E-019
  -7.6649999999999996E-002     5.0821566544011787E-019
  -7.5800000000000006E-002    -7.0632911887666972E-020
  -7.4949999999999989E-002    -9.3962882155587945E-019
  -7.4099999999999999E-002    -2.0338230456745355E-018
  -7.3249999999999996E-002    -3.2022674293010623E-018
  -7.2399999999999992E-002    -4.1969613963432638E-018
  -7.1550000000000002E-002    -4.6806552429082059E-018
  -7.0699999999999999E-002    -4.2672330379962844E-018
  -6.9849999999999995E-002    -2.6057641075543939E-018
  -6.9000000000000006E-002     4.9268666245066868E-019
  -6.8149999999999988E-002     4.9079284339567020E-018
  -6.7299999999999999E-002     1.0091202447276044E-017
  -6.6449999999999995E-002     1.5038951466533966E-017
  -6.5599999999999992E-002     1.8420383492298449E-017
  -6.4750000000000002E-002     1.8880967406969288E-017
  -6.3899999999999998E-002     1.5474424349006962E-017
  -6.3049999999999995E-002     8.0942577332381683E-018
  -6.2199999999999998E-002    -2.2806588602884941E-018
  -6.1350000000000002E-002    -1.3703103181648325E-017
  -6.0499999999999998E-002    -2.3813737270530042E-017
  -5.9650000000000002E-002    -3.0730888836282736E-017
  -5.8799999999999998E-002    -3.3962451672310267E-017
  -5.7950000000000002E-002    -3.4891467997816732E-017
  -5.7099999999999998E-002    -3.6420108564558283E-017
  -5.6249999999999994E-002    -4.1613966386096626E-017
  -5.5400000000000005E-002    -5.1632465909601318E-017
  -5.4550000000000001E-002    -6.3715136760283481E-017
  -5.3699999999999998E-002    -7.0289070372876307E-017
  -5.2849999999999994E-002    -6.0145620335000360E-017
  -5.2000000000000005E-002    -2.2000108620059318E-017
  -5.1150000000000001E-002     5.0294484074534523E-017
  -5.0299999999999997E-002     1.5269757573950379E-016
  -4.9449999999999994E-002     2.6853345848550689E-016
  -4.8600000000000004E-002     3.7074764813678094E-016
  -4.7750000000000001E-002     4.2948245283714631E-016
  -4.6899999999999997E-002     4.2323351958513404E-016
  -4.6049999999999994E-002     3.4947355480438329E-016
  -4.5200000000000004E-002     2.2933604959752723E-016
  -4.4350000000000001E-002     1.0182055797555518E-016
  -4.3499999999999997E-002     6.3652542706322324E-018
  -4.2649999999999993E-002    -4.2126066687972690E-017
  -4.1800000000000004E-002    -7.6372618246966493E-017
  -4.0950000000000000E-002    -1.8551918158729587E-016
  -4.0099999999999997E-002    -4.9882423470777645E-016
  -3.9249999999999993E-002    -1.1404649839504698E-015
  -3.8400000000000004E-002    -2.1629323293313301E-015
  -3.7550000000000000E-002    -3.4784870612240636E-015
  -3.6699999999999997E-002    -4.8160103020433319E-015
  -3.5850000000000007E-002    -5.7297307215577770E-015
  -3.5000000000000003E-002    -5.6746218438690018E-015
  -3.4150000000000000E-002    -4.1425621394591834E-015
  -3.3299999999999996E-002    -8.2960772405758111E-016
  -3.2450000000000007E-002     4.2132502737110276E-015
  -3.1600000000000003E-002     1.0497269083876023E-014
  -3.0750000000000000E-002     1.7117898513097635E-014
  -2.9899999999999996E-002     2.2887478901970638E-014
  -2.9050000000000006E-002     2.6547479262350396E-014
  -2.8200000000000003E-002     2.6999921187983888E-014
  -2.7349999999999999E-002     2.3489697977012108E-014
  -2.6499999999999996E-002     1.5690112501951670E-014
  -2.5650000000000006E-002     3.6878761536783197E-015
  -2.4800000000000003E-002    -1.2085090387468751E-014
  -2.3949999999999999E-002    -3.0891824035259477E-014
  -2.3099999999999996E-002    -5.1625803053702831E-014
  -2.2250000000000006E-002    -7.2616481243224466E-014
  -2.1400000000000002E-002    -9.1366900150528604E-014
  -2.0549999999999999E-002    -1.0437576336674039E-013
  -1.9699999999999995E-002    -1.0724573948790233E-013
  -1.8850000000000006E-002    -9.5249573044804957E-014
  -1.8000000000000002E-002    -6.4400726530340878E-014
  -1.7149999999999999E-002    -1.2878043722315979E-014
  -1.6299999999999995E-002     5.7553167819583209E-014
  -1.5450000000000005E-002     1.4061682791391172E-013
  -1.4600000000000002E-002     2.2557680045129256E-013
  -1.3749999999999998E-002     2.9853696095940824E-013
  -1.2899999999999995E-002     3.4490587807269914E-013
  -1.2050000000000005E-002     3.5252145516896221E-013
  -1.1200000000000002E-002     3.1459918306709162E-013
  -1.0349999999999998E-002     2.3157194282462865E-013
  -9.5000000000000084E-003     1.1111471093253102E-013
  -8.6500000000000049E-003    -3.3824495514351932E-014
  -7.8000000000000014E-003    -1.8847411086185054E-013
  -6.9499999999999978E-003    -3.4003637969973253E-013
  -6.1000000000000082E-003    -4.8040051490445586E-013
  -5.2500000000000047E-003    -6.0654812614711433E-013
  -4.4000000000000011E-003    -7.1814647875425181E-013
  -3.5499999999999976E-003    -8.1289243307563242E-013
  -2.7000000000000079E-003    -8.8123757924364415E-013
  -1.8500000000000044E-003    -9.0277251127960955E-013
  -1.0000000000000009E-003    -8.4645634615866555E-013
  -1.4999999999999736E-004    -6.7592965592554601E-013
   6.9999999999999230E-004    -3.5953887392721910E-013
   1.5499999999999958E-003     1.1712074013217760E-013
   2.3999999999999994E-003     7.3971707154014314E-013
   3.2500000000000029E-003     1.4587104591059893E-012
   4.0999999999999925E-003     2.1909542886167622E-012
   4.9499999999999961E-003     2.8303287819025151E-012
   5.7999999999999996E-003     3.2656746117162932E-012
   6.6499999999999893E-003     3.4018220083800582E-012
   7.5000000000000067E-003     3.1781801983747272E-012
   8.3499999999999963E-003     2.5797355303820199E-012
   9.1999999999999860E-003     1.6374567102340594E-012
   1.0050000000000003E-002     4.1843496798941036E-013
   1.0899999999999993E-002    -9.9043753778190962E-013
   1.1750000000000010E-002    -2.4991496092897856E-012
   1.2600000000000000E-002    -4.0252017630836632E-012
   1.3449999999999990E-002    -5.4939359770263259E-012
   1.4300000000000007E-002    -6.8283191411971961E-012
   1.5149999999999997E-002    -7.9324865478825657E-012
   1.5999999999999986E-002    -8.6769619072956426E-012
   1.6850000000000004E-002    -8.8944943298382910E-012
   1.7699999999999994E-002    -8.3933397242473554E-012
   1.8549999999999983E-002    -6.9897809288296494E-012
   1.9400000000000001E-002    -4.5551607997670095E-012
   2.0249999999999990E-002    -1.0668170213400663E-012
   2.1100000000000008E-002     3.3510307715605149E-012
   2.1949999999999997E-002     8.4095707356039709E-012
   2.2799999999999987E-002     1.3669114190386908E-011
   2.3650000000000004E-002     1.8584577883128283E-011
   2.4499999999999994E-002     2.2574729053686867E-011
   2.5349999999999984E-002     2.5100542058343991E-011
   2.6200000000000001E-002     2.5735942058734563E-011
   2.7049999999999991E-002     2.4216639143978434E-011
   2.7900000000000008E-002     2.0459874838125402E-011
   2.8749999999999998E-002     1.4556532843201389E-011
   2.9599999999999987E-002     6.7450908573090398E-012
   3.0450000000000005E-002    -2.6188768591301183E-012
   3.1299999999999994E-002    -1.3084921069355080E-011
   3.2149999999999984E-002    -2.4114493310843169E-011
   3.3000000000000002E-002    -3.5074032134063051E-011
   3.3849999999999991E-002    -4.5224494594503330E-011
   3.4700000000000009E-002    -5.3722795933628173E-011
   3.5549999999999998E-002    -5.9650205085104456E-011
   3.6399999999999988E-002    -6.2076905418586733E-011
   3.7250000000000005E-002    -6.0161545819720124E-011
   3.8099999999999995E-002    -5.3273199545871588E-011
   3.8949999999999985E-002    -4.1114386393467522E-011
   3.9800000000000002E-002    -2.3820247901758527E-011
   4.0649999999999992E-002    -2.0121798789684252E-012
   4.1500000000000009E-002     2.3206914649321897E-011
   4.2349999999999999E-002     5.0315957341936541E-011
   4.3199999999999988E-002     7.7486618521371922E-011
   4.4050000000000006E-002     1.0272213234816774E-010
   4.4899999999999995E-002     1.2400275181577496E-010
   4.5749999999999985E-002     1.3942043538327566E-010
   4.6600000000000003E-002     1.4729306020467454E-010
   4.7449999999999992E-002     1.4625866435030571E-010
   4.8299999999999982E-002     1.3535658274525591E-010
   4.9149999999999999E-002     1.1410564049843397E-010
   4.9999999999999989E-002     8.2585745783974399E-011
   5.0850000000000006E-002     4.1522431050137088E-011
   5.1699999999999996E-002    -7.6362783037686083E-012
   5.2549999999999986E-002    -6.2669545540236535E-011
   5.3400000000000003E-002    -1.2058355443865681E-010
   5.4249999999999993E-002    -1.7768356207639980E-010
   5.5099999999999982E-002    -2.2973277350716285E-010
   5.5950000000000000E-002    -2.7220148727656395E-010
   5.6799999999999989E-002    -3.0059442029609518E-010
   5.7650000000000007E-002    -3.1083197079222105E-010
   5.8499999999999996E-002    -2.9964953831660899E-010
   5.9349999999999986E-002    -2.6497443887678106E-010
   6.0200000000000004E-002    -2.0623914132429561E-010
   6.1049999999999993E-002    -1.2459525081743774E-010
   6.1899999999999983E-002    -2.3001834782998347E-011
   6.2750000000000000E-002     9.3827065619274872E-011
   6.3599999999999990E-002     2.1961858326392043E-010
   6.4450000000000007E-002     3.4687038113629315E-010
   6.5299999999999997E-002     4.6729486237988091E-010
   6.6149999999999987E-002     5.7234851118295893E-010
   6.7000000000000004E-002     6.5381623790441777E-010
   6.7849999999999994E-002     7.0441128316378279E-010
   6.8699999999999983E-002     7.1835663366962825E-010
   6.9550000000000001E-002     6.9190811596507485E-010
   7.0399999999999990E-002     6.2378575008275876E-010
   7.1249999999999980E-002     5.1547861763694146E-010
   7.2099999999999997E-002     3.7139595699382447E-010
   7.2949999999999987E-002     1.9884397955636531E-010
   7.3800000000000004E-002     7.8158025945540034E-012
   7.4649999999999994E-002    -1.8939779051963555E-010
   7.5499999999999984E-002    -3.7875266196818044E-010
   7.6350000000000001E-002    -5.4511143457446384E-010
   7.7199999999999991E-002    -6.7295606731003335E-010
   7.8049999999999981E-002    -7.4707752280007822E-010
   7.8899999999999998E-002    -7.5317017670550079E-010
   7.9749999999999988E-002    -6.7826036542594442E-010
   8.0600000000000005E-002    -5.1091441586441177E-010
   8.1449999999999995E-002    -2.4120016600348192E-010
   8.2299999999999984E-002     1.3960160680354884E-010
   8.3150000000000002E-002     6.3951821291374057E-010
   8.3999999999999991E-002     1.2665851718435435E-009
   8.4849999999999981E-002     2.0296897771479347E-009
   8.5699999999999998E-002     2.9394904985231045E-009
   8.6549999999999988E-002     4.0093948269878137E-009
   8.7400000000000005E-002     5.2565528999074361E-009
   8.8249999999999995E-002     6.7028569589123272E-009
   8.9099999999999985E-002     8.3759506256878168E-009
   8.9950000000000002E-002     1.0310240283311151E-008
   9.0799999999999992E-002     1.2547888642953256E-008
   9.1649999999999981E-002     1.5139852253634217E-008
   9.2499999999999999E-002     1.8146968930144713E-008
   9.3349999999999989E-002     2.1641108623136175E-008
   9.4200000000000006E-002     2.5706439609893907E-008
   9.5049999999999996E-002     3.0440954809577964E-008
   9.5899999999999985E-002     3.5958270146236781E-008
   9.6750000000000003E-002     4.2389654731067572E-008
   9.7599999999999992E-002     4.9886508358475795E-008
   9.8449999999999982E-002     5.8623225471942575E-008
   9.9299999999999999E-002     6.8800428951370067E-008
  0.10014999999999999          8.0648533240257186E-008
  0.10099999999999998          9.4431550962013068E-008
  0.10185000000000000          1.1045145707724344E-007
  0.10269999999999999          1.2905228146776799E-007
  0.10355000000000000          1.5062499763270577E-007
  0.10439999999999999          1.7561254392561903E-007
  0.10524999999999998          2.0451507562928892E-007
  0.10610000000000000          2.3789592631869162E-007
  0.10694999999999999          2.7638773820431388E-007
  0.10779999999999998          3.2069956032368104E-007
  0.10865000000000000          3.7162353057045994E-007
  0.10949999999999999          4.3004347540805448E-007
  0.11035000000000000          4.9694266296367841E-007
  0.11119999999999999          5.7341258519298566E-007
  0.11204999999999998          6.6066242094619227E-007
  0.11290000000000000          7.6002797469489881E-007
  0.11374999999999999          8.7298182077872827E-007
  0.11459999999999998          1.0011413598062983E-006
  0.11545000000000000          1.1462816118683581E-006
  0.11629999999999999          1.3103417679186748E-006
  0.11715000000000000          1.4954358253293511E-006
  0.11799999999999999          1.7038635186394192E-006
  0.11884999999999998          1.9381164450751284E-006
  0.11970000000000000          2.2008849910442649E-006
  0.12054999999999999          2.4950663963586974E-006
  0.12139999999999998          2.8237702081516997E-006
  0.12225000000000000          3.1903165330558490E-006
  0.12309999999999999          3.5982448530451253E-006
  0.12395000000000000          4.0513102863953102E-006
  0.12479999999999999          4.5534794877834592E-006
  0.12564999999999998          5.1089323572947063E-006
  0.12650000000000000          5.7220472476488497E-006
  0.12734999999999999          6.3973943646334894E-006
  0.12819999999999998          7.1397172851713932E-006
  0.12905000000000000          7.9539214813913526E-006
  0.12989999999999999          8.8450417956117078E-006
  0.13074999999999998          9.8182136515892808E-006
  0.13159999999999999          1.0878636924477450E-005
  0.13245000000000001          1.2031540718265092E-005
  0.13329999999999997          1.3282131766823387E-005
  0.13414999999999999          1.4635541722908059E-005
  0.13500000000000001          1.6096758640189860E-005
  0.13584999999999997          1.7670567146751568E-005
  0.13669999999999999          1.9361473535546830E-005
  0.13755000000000001          2.1173611337905044E-005
  0.13839999999999997          2.3110646081997026E-005
  0.13924999999999998          2.5175732417726801E-005
  0.14010000000000000          2.7371343538852696E-005
  0.14094999999999996          2.9699196947491466E-005
  0.14179999999999998          3.2160164909834442E-005
  0.14265000000000000          3.4754101925300007E-005
  0.14350000000000002          3.7479796912714168E-005
  0.14434999999999998          4.0334788095097364E-005
  0.14520000000000000          4.3315320960485872E-005
  0.14605000000000001          4.6416139598640818E-005
  0.14689999999999998          4.9630443503033849E-005
  0.14774999999999999          5.2949713409488708E-005
  0.14860000000000001          5.6363621017086709E-005
  0.14944999999999997          5.9859898319067357E-005
  0.15029999999999999          6.3424269881491932E-005
  0.15115000000000001          6.7040362963821429E-005
  0.15199999999999997          7.0689580741201981E-005
  0.15284999999999999          7.4351131355887085E-005
  0.15370000000000000          7.8002025089854568E-005
  0.15454999999999997          8.1616928255825747E-005
  0.15539999999999998          8.5168277562045595E-005
  0.15625000000000000          8.8626364473892773E-005
  0.15709999999999996          9.1959291121840507E-005
  0.15794999999999998          9.5133096941508490E-005
  0.15880000000000000          9.8112036220244413E-005
  0.15965000000000001          1.0085834423307693E-004
  0.16049999999999998          1.0333274377825641E-004
  0.16134999999999999          1.0549478609648351E-004
  0.16220000000000001          1.0730288872978113E-004
  0.16304999999999997          1.0871470657166962E-004
  0.16389999999999999          1.0968756284458326E-004
  0.16475000000000001          1.1017868299852903E-004
  0.16559999999999997          1.1014581857365647E-004
  0.16644999999999999          1.0954761176635642E-004
  0.16730000000000000          1.0834398764616802E-004
  0.16814999999999997          1.0649640715029666E-004
  0.16899999999999998          1.0396878075247800E-004
  0.16985000000000000          1.0072782928552098E-004
  0.17069999999999996          9.6743350478404360E-005
  0.17154999999999998          9.1989080680747270E-005
  0.17240000000000000          8.6443297483141987E-005
  0.17325000000000002          8.0088753202561136E-005
  0.17409999999999998          7.2914070430326380E-005
  0.17494999999999999          6.4913511525135570E-005
  0.17580000000000001          5.6087332164030473E-005
  0.17664999999999997          4.6443042662183264E-005
  0.17749999999999999          3.5994520264821968E-005
  0.17835000000000001          2.4763450563249552E-005
  0.17919999999999997          1.2778567267856980E-005
  0.18004999999999999          7.6461185080043497E-008
  0.18090000000000001         -1.3298506797909464E-005
  0.18174999999999997         -2.7294300402820952E-005
  0.18259999999999998         -4.1851283670720922E-005
  0.18345000000000000         -5.6902216489464347E-005
  0.18429999999999996         -7.2372775923791762E-005
  0.18514999999999998         -8.8181671751877636E-005
  0.18600000000000000         -1.0424133240405599E-004
  0.18684999999999996         -1.2045837149565999E-004
  0.18769999999999998         -1.3673408014504252E-004
  0.18855000000000000         -1.5296539856430314E-004
  0.18940000000000001         -1.6904528495972820E-004
  0.19024999999999997         -1.8486432239492583E-004
  0.19109999999999999         -2.0031078708772899E-004
  0.19195000000000001         -2.1527220819423818E-004
  0.19279999999999997         -2.2963624454078689E-004
  0.19364999999999999         -2.4329169843812930E-004
  0.19450000000000001         -2.5612977514452313E-004
  0.19534999999999997         -2.6804497468534957E-004
  0.19619999999999999         -2.7893618923242213E-004
  0.19705000000000000         -2.8870805463834505E-004
  0.19789999999999996         -2.9727162594665838E-004
  0.19874999999999998         -3.0454571516747302E-004
  0.19960000000000000         -3.1045771223622300E-004
  0.20044999999999996         -3.1494448665366159E-004
  0.20129999999999998         -3.1795312578156815E-004
  0.20215000000000000         -3.1944156179134734E-004
  0.20300000000000001         -3.1937973675207667E-004
  0.20384999999999998         -3.1774925656766786E-004
  0.20469999999999999         -3.1454449256839416E-004
  0.20555000000000001         -3.0977224055669071E-004
  0.20639999999999997         -3.0345257112859977E-004
  0.20724999999999999         -2.9561798521702171E-004
  0.20810000000000001         -2.8631385256345794E-004
  0.20894999999999997         -2.7559770798530378E-004
  0.20979999999999999         -2.6353951431466114E-004
  0.21065000000000000         -2.5021989840481201E-004
  0.21149999999999997         -2.3573054893722526E-004
  0.21234999999999998         -2.2017257224181094E-004
  0.21320000000000000         -2.0365638847628524E-004
  0.21404999999999996         -1.8630074360392789E-004
  0.21489999999999998         -1.6823054150064148E-004
  0.21575000000000000         -1.4957687620773994E-004
  0.21659999999999996         -1.3047516936838844E-004
  0.21744999999999998         -1.1106428561128367E-004
  0.21829999999999999         -9.1485027120433201E-005
  0.21915000000000001         -7.1878613878086756E-005
  0.21999999999999997         -5.2385551513489433E-005
  0.22084999999999999         -3.3144159055164919E-005
  0.22170000000000001         -1.4289816366502456E-005
  0.22254999999999997          4.0471902252138991E-006
  0.22339999999999999          2.1742296873909810E-005
  0.22425000000000000          3.8677206170060674E-005
  0.22509999999999997          5.4742262406702181E-005
  0.22594999999999998          6.9835694827125033E-005
  0.22680000000000000          8.3866040871450118E-005
  0.22764999999999996          9.6752196599942148E-005
  0.22849999999999998          1.0842349511450959E-004
  0.22935000000000000          1.1882189855057204E-004
  0.23019999999999996          1.2790069680139552E-004
  0.23104999999999998          1.3562599474514813E-004
  0.23190000000000000          1.4197659216548804E-004
  0.23275000000000001          1.4694354712118163E-004
  0.23359999999999997          1.5053055249076677E-004
  0.23444999999999999          1.5275339897242855E-004
  0.23530000000000001          1.5363989638153027E-004
  0.23614999999999997          1.5322941241620230E-004
  0.23699999999999999          1.5157230951962824E-004
  0.23785000000000001          1.4872950238066195E-004
  0.23869999999999997          1.4477198117242719E-004
  0.23954999999999999          1.3977965851916005E-004
  0.24040000000000000          1.3384113797146218E-004
  0.24124999999999996          1.2705231032827716E-004
  0.24209999999999998          1.1951576574156839E-004
  0.24295000000000000          1.1133960104196477E-004
  0.24379999999999996          1.0263663352241049E-004
  0.24464999999999998          9.3523003111896773E-005
  0.24550000000000000          8.4117371764911452E-005
  0.24634999999999996          7.4539809299940552E-005
  0.24719999999999998          6.4910932658779824E-005
  0.24804999999999999          5.5350746382342444E-005
  0.24890000000000001          4.5977640345649197E-005
  0.24974999999999997          3.6907529567302822E-005
  0.25059999999999999          2.8252806770286102E-005
  0.25145000000000001          2.0121422356337695E-005
  0.25229999999999997          1.2615818738178927E-005
  0.25314999999999999          5.8321387709713929E-006
  0.25400000000000000         -1.4050506207798136E-007
  0.25484999999999997         -5.2208833825252633E-006
  0.25569999999999998         -9.3366185321921905E-006
  0.25655000000000000         -1.2424209016958792E-005
  0.25739999999999996         -1.4429888477735159E-005
  0.25824999999999998         -1.5310321528012555E-005
  0.25910000000000000         -1.5032478062001374E-005
  0.25994999999999996         -1.3574324985785188E-005
  0.26079999999999998         -1.0924934775434103E-005
  0.26164999999999999         -7.0847323429485455E-006
  0.26249999999999996         -2.0657297514903673E-006
  0.26334999999999997          4.1084665567675482E-006
  0.26419999999999999          1.1402841443341177E-005
  0.26505000000000001          1.9771205912700300E-005
  0.26589999999999997          2.9156565124644167E-005
  0.26674999999999999          3.9491486078742928E-005
  0.26760000000000000          5.0698642109510956E-005
  0.26844999999999997          6.2691694074319963E-005
  0.26929999999999998          7.5375354612872218E-005
  0.27015000000000000          8.8646798253659928E-005
  0.27099999999999996          1.0239579790837861E-004
  0.27184999999999998          1.1650623931446260E-004
  0.27270000000000000          1.3085667818376026E-004
  0.27354999999999996          1.4532139642379848E-004
  0.27439999999999998          1.5977155795433609E-004
  0.27524999999999999          1.7407662268552590E-004
  0.27609999999999996          1.8810505246445345E-004
  0.27694999999999997          2.0172615556954528E-004
  0.27779999999999999          2.1481067431028132E-004
  0.27865000000000001          2.2723242457652710E-004
  0.27949999999999997          2.3886913055801148E-004
  0.28034999999999999          2.4960388820525060E-004
  0.28120000000000001          2.5932606572475191E-004
  0.28204999999999997          2.6793253429567814E-004
  0.28289999999999998          2.7532864151018355E-004
  0.28375000000000000          2.8142912482571745E-004
  0.28459999999999996          2.8615913918070496E-004
  0.28544999999999998          2.8945492090560164E-004
  0.28630000000000000          2.9126461993920442E-004
  0.28714999999999996          2.9154862102465611E-004
  0.28799999999999998          2.9028015869283483E-004
  0.28885000000000000          2.8744532096751049E-004
  0.28969999999999996          2.8304349095575334E-004
  0.29054999999999997          2.7708708944240636E-004
  0.29139999999999999          2.6960157649840756E-004
  0.29224999999999995          2.6062526150729456E-004
  0.29309999999999997          2.5020892210672103E-004
  0.29394999999999999          2.3841526314250232E-004
  0.29480000000000001          2.2531850972853416E-004
  0.29564999999999997          2.1100341637602326E-004
  0.29649999999999999          1.9556456428136546E-004
  0.29735000000000000          1.7910548510836731E-004
  0.29819999999999997          1.6173735984857307E-004
  0.29904999999999998          1.4357824946943136E-004
  0.29990000000000000          1.2475156406523591E-004
  0.30074999999999996          1.0538522998792525E-004
  0.30159999999999998          8.5610201519600596E-005
  0.30245000000000000          6.5559327888042144E-005
  0.30329999999999996          4.5365795295322054E-005
  0.30414999999999998          2.5162622973371939E-005
  0.30499999999999999          5.0806841109309770E-006
  0.30584999999999996         -1.4752343415980288E-005
  0.30669999999999997         -3.4212431287800439E-005
  0.30754999999999999         -5.3181524907128435E-005
  0.30840000000000001         -7.1547389359996526E-005
  0.30924999999999997         -8.9204851714298341E-005
  0.31009999999999999         -1.0605679860788150E-004
  0.31095000000000000         -1.2201451072408137E-004
  0.31179999999999997         -1.3699862264071873E-004
  0.31264999999999998         -1.5093910106461696E-004
  0.31350000000000000         -1.6377618727800511E-004
  0.31434999999999996         -1.7546026638282314E-004
  0.31519999999999998         -1.8595199015131371E-004
  0.31605000000000000         -1.9522279824266532E-004
  0.31689999999999996         -2.0325413444433822E-004
  0.31774999999999998         -2.1003759306600659E-004
  0.31859999999999999         -2.1557470245627347E-004
  0.31944999999999996         -2.1987634623061680E-004
  0.32029999999999997         -2.2296255178376714E-004
  0.32114999999999999         -2.2486193474756047E-004
  0.32199999999999995         -2.2561086629669405E-004
  0.32284999999999997         -2.2525303171784360E-004
  0.32369999999999999         -2.2383861561287670E-004
  0.32455000000000001         -2.2142350710120738E-004
  0.32539999999999997         -2.1806855769040357E-004
  0.32624999999999998         -2.1383893821430428E-004
  0.32710000000000000         -2.0880321611199443E-004
  0.32794999999999996         -2.0303261435141145E-004
  0.32879999999999998         -1.9660046665094814E-004
  0.32965000000000000         -1.8958117254508816E-004
  0.33049999999999996         -1.8204976517514088E-004
  0.33134999999999998         -1.7408098299370948E-004
  0.33220000000000000         -1.6574867984448348E-004
  0.33304999999999996         -1.5712512107483748E-004
  0.33389999999999997         -1.4828051043177037E-004
  0.33474999999999999         -1.3928242974019288E-004
  0.33559999999999995         -1.3019536224371598E-004
  0.33644999999999997         -1.2108047977336004E-004
  0.33729999999999999         -1.1199528711459172E-004
  0.33815000000000001         -1.0299344637359004E-004
  0.33899999999999997         -9.4124472415980354E-005
  0.33984999999999999         -8.5433709546812303E-005
  0.34070000000000000         -7.6962042933331707E-005
  0.34154999999999996         -6.8745840041010406E-005
  0.34239999999999998         -6.0816940931507285E-005
  0.34325000000000000         -5.3202620869644220E-005