 -0.12000000000000000          0.0000000000000000
 -0.11914999999999999          0.0000000000000000
 -0.11830000000000000          0.0000000000000000
 -0.11745000000000000          0.0000000000000000
 -0.11660000000000000          0.0000000000000000
 -0.11574999999999999          0.0000000000000000
 -0.11490000000000000          0.0000000000000000
 -0.11405000000000000          0.0000000000000000
 -0.11320000000000000          0.0000000000000000
 -0.11234999999999999          0.0000000000000000
 -0.11150000000000000          0.0000000000000000
 -0.11065000000000000          1.6546326322163586E-025
 -0.10979999999999999          3.1051647817915837E-024
 -0.10894999999999999          2.7782587498239414E-023
 -0.10810000000000000          1.5526379051531129E-022
 -0.10725000000000000          5.8603028533730308E-022
 -0.10639999999999999          1.4311846718977014E-021
 -0.10554999999999999          1.3233589483308803E-021
 -0.10470000000000000         -6.6018047364227283E-021
 -0.10385000000000000         -4.0991819399467053E-020
 -0.10299999999999999         -1.3220675160560137E-019
 -0.10214999999999999         -2.9075735582713710E-019
 -0.10130000000000000         -4.0547905124865004E-019
 -0.10045000000000000         -5.7462742378191532E-020
  -9.9599999999999994E-002     1.6471464620705191E-018
  -9.8750000000000004E-002     5.8900824167922059E-018
  -9.7900000000000001E-002     1.3022526865470481E-017
  -9.7049999999999997E-002     2.0013506733941635E-017
  -9.6199999999999994E-002     1.6857228058217733E-017
  -9.5349999999999990E-002    -1.5615542672266104E-017
  -9.4500000000000001E-002    -1.0133906281961861E-016
  -9.3649999999999997E-002    -2.5138045109176887E-016
  -9.2799999999999994E-002    -4.2967804070008612E-016
  -9.1950000000000004E-002    -5.1012693396550687E-016
  -9.1100000000000000E-002    -2.5252121770564005E-016
  -9.0249999999999997E-002     6.5486935064479720E-016
  -8.9399999999999993E-002     2.4340528038427202E-015
  -8.8549999999999990E-002     4.9191595806249050E-015
  -8.7700000000000000E-002     7.1892544039475142E-015
  -8.6849999999999997E-002     7.3263618257075040E-015
  -8.5999999999999993E-002     2.6047916837049941E-015
  -8.5150000000000003E-002    -9.5789759337908033E-015
  -8.4300000000000000E-002    -2.9930517174425167E-014
  -8.3449999999999996E-002    -5.4978487350721308E-014
  -8.2600000000000007E-002    -7.5226343819756025E-014
  -8.1749999999999989E-002    -7.5135483513870148E-014
  -8.0900000000000000E-002    -3.6306343368013363E-014
  -8.0049999999999996E-002     5.5615381964001644E-014
  -7.9199999999999993E-002     2.0140662545688109E-013
  -7.8350000000000003E-002     3.7910574703736162E-013
  -7.7499999999999999E-002     5.3941753755271421E-013
  -7.6649999999999996E-002     6.0936884527521058E-013
  -7.5800000000000006E-002     5.0529860036177770E-013
  -7.4949999999999989E-002     1.5246031490315549E-013
  -7.4099999999999999E-002    -4.9424268174110280E-013
  -7.3249999999999996E-002    -1.4329397729221910E-012
  -7.2399999999999992E-002    -2.5995911588695573E-012
  -7.1550000000000002E-002    -3.8453339998161894E-012
  -7.0699999999999999E-002    -4.8929022333128133E-012
  -6.9849999999999995E-002    -5.2685239663725920E-012
  -6.9000000000000006E-002    -4.2357682489606989E-012
  -6.8149999999999988E-002    -8.0349600459121921E-013
  -6.7299999999999999E-002     6.0791785508799093E-012
  -6.6449999999999995E-002     1.7029476804089083E-011
  -6.5599999999999992E-002     3.1410166482786262E-011
  -6.4750000000000002E-002     4.6335753347908142E-011
  -6.3899999999999998E-002     5.5912864960307684E-011
  -6.3049999999999995E-002     5.1349356231834478E-011
  -6.2199999999999998E-002     2.2617535288044691E-011
  -6.1350000000000002E-002    -3.7927538364203267E-011
  -6.0499999999999998E-002    -1.3027276038712042E-010
  -5.9650000000000002E-002    -2.4113402952193597E-010
  -5.8799999999999998E-002    -3.4036518286881443E-010
  -5.7950000000000002E-002    -3.8229550770339840E-010
  -5.7099999999999998E-002    -3.1441992480216705E-010
  -5.6249999999999994E-002    -9.4015986288756252E-011
  -5.5400000000000005E-002     2.8983239727357502E-010
  -5.4550000000000001E-002     7.9490392796988314E-010
  -5.3699999999999998E-002     1.3140165480831360E-009
  -5.2849999999999994E-002     1.6818217727310695E-009
  -5.2000000000000005E-002     1.7060263461086734E-009
  -5.1150000000000001E-002     1.2218291490434050E-009
  -5.0299999999999997E-002     1.5900135678550658E-010
  -4.9449999999999994E-002    -1.3977740901868411E-009
  -4.8600000000000004E-002    -3.1792142342392951E-009
  -4.7750000000000001E-002    -4.7533692643529823E-009
  -4.6899999999999997E-002    -5.6083511014446824E-009
  -4.6049999999999994E-002    -5.2862087549149729E-009
  -4.5200000000000004E-002    -3.5373641535872329E-009
  -4.4350000000000001E-002    -4.4932127099355944E-010
  -4.3499999999999997E-002     3.4998887658308423E-009
  -4.2649999999999993E-002     7.4995221197596483E-009
  -4.1800000000000004E-002     1.0581707990395104E-008
  -4.0950000000000000E-002     1.1882342188864832E-008
  -4.0099999999999997E-002     1.0918326075429130E-008
  -3.9249999999999993E-002     7.7915928434355721E-009
  -3.8400000000000004E-002     3.2357755475131874E-009
  -3.7550000000000000E-002    -1.5439272104414194E-009
  -3.6699999999999997E-002    -5.2281279117641511E-009
  -3.5850000000000007E-002    -6.8600704245885616E-009
  -3.5000000000000003E-002    -6.3067663339321248E-009
  -3.4150000000000000E-002    -4.5419485040421475E-009
  -3.3299999999999996E-002    -3.6037099859459637E-009
  -3.2450000000000007E-002    -6.1429753965778541E-009
  -3.1600000000000003E-002    -1.4581144237991915E-008
  -3.0750000000000000E-002    -3.0016258384937265E-008
  -2.9899999999999996E-002    -5.1132313791061514E-008
  -2.9050000000000006E-002    -7.3445792445712093E-008
  -2.8200000000000003E-002    -8.9238837293939094E-008
  -2.7349999999999999E-002    -8.8458502927654594E-008
  -2.6499999999999996E-002    -6.0697293142645108E-008
  -2.5650000000000006E-002     1.8814322133176452E-009
  -2.4800000000000003E-002     1.0111387484671402E-007
  -2.3949999999999999E-002     2.2964514761339656E-007
  -2.3099999999999996E-002     3.6892729832236253E-007
  -2.2250000000000006E-002     4.8938437389549370E-007
  -2.1400000000000002E-002     5.5349204274071825E-007
  -2.0549999999999999E-002     5.2200709990753213E-007
  -1.9699999999999995E-002     3.6281904948218939E-007
  -1.8850000000000006E-002     6.1044563765589675E-008
  -1.8000000000000002E-002    -3.7175000140004750E-007
  -1.7149999999999999E-002    -8.9169500543205378E-007
  -1.6299999999999995E-002    -1.4224396444590251E-006
  -1.5450000000000005E-002    -1.8621274772602178E-006
  -1.4600000000000002E-002    -2.0975995394309807E-006
  -1.3749999999999998E-002    -2.0242087489002241E-006
  -1.2899999999999995E-002    -1.5680691892820700E-006
  -1.2050000000000005E-002    -7.0653065518558487E-007
  -1.1200000000000002E-002     5.1747409980255173E-007
  -1.0349999999999998E-002     1.9907122780482895E-006
  -9.5000000000000084E-003     3.5363425506600207E-006
  -8.6500000000000049E-003     4.9316963725627311E-006
  -7.8000000000000014E-003     5.9347902728944793E-006
  -6.9499999999999978E-003     6.3157611834122324E-006
  -6.1000000000000082E-003     5.8889420483416276E-006
  -5.2500000000000047E-003     4.5416891219647238E-006
  -4.4000000000000011E-003     2.2571640111305834E-006
  -3.5499999999999976E-003    -8.7062594143287931E-007
  -2.7000000000000079E-003    -4.6302750009679591E-006
  -1.8500000000000044E-003    -8.6954447950683977E-006
  -1.0000000000000009E-003    -1.2637206731265757E-005
  -1.4999999999999736E-004    -1.5947713404568213E-005
   6.9999999999999230E-004    -1.8076903690318118E-005
   1.5499999999999958E-003    -1.8483314334858187E-005
   2.3999999999999994E-003    -1.6698179137291923E-005
   3.2500000000000029E-003    -1.2399313704525367E-005
   4.0999999999999925E-003    -5.4877448417224864E-006
   4.9499999999999961E-003     3.8432351894591405E-006
   5.7999999999999996E-003     1.5058588334705597E-005
   6.6499999999999893E-003     2.7263474499515417E-005
   7.5000000000000067E-003     3.9226489317087852E-005
   8.3499999999999963E-003     4.9449866753924649E-005
   9.1999999999999860E-003     5.6287136457184878E-005
   1.0050000000000003E-002     5.8102430024137712E-005
   1.0899999999999993E-002     5.3461435316386537E-005
   1.1750000000000010E-002     4.1340108428458148E-005
   1.2600000000000000E-002     2.1333847677987893E-005
   1.3449999999999990E-002    -6.1525346957024700E-006
   1.4300000000000007E-002    -3.9755897189956715E-005
   1.5149999999999997E-002    -7.7070817461907944E-005
   1.5999999999999986E-002    -1.1465896131392314E-004
   1.6850000000000004E-002    -1.4817997669787559E-004
   1.7699999999999994E-002    -1.7266885401423212E-004
   1.8549999999999983E-002    -1.8297400535095403E-004
   1.9400000000000001E-002    -1.7435100765353313E-004
   2.0249999999999990E-002    -1.4317683857872687E-004
   2.1100000000000008E-002    -8.7714645948255382E-005
   2.1949999999999997E-002    -8.8226279805596070E-006
   2.2799999999999987E-002     8.9522992693618362E-005
   2.3650000000000004E-002     2.0002522117860191E-004
   2.4499999999999994E-002     3.1229396384860135E-004
   2.5349999999999984E-002     4.1356144010301562E-004
   2.6200000000000001E-002     4.8986095627311598E-004
   2.7049999999999991E-002     5.2755901123854409E-004
   2.7900000000000008E-002     5.1505339515682221E-004
   2.8749999999999998E-002     4.4440785069428440E-004
   2.9599999999999987E-002     3.1269441667980494E-004
   3.0450000000000005E-002     1.2286876659038456E-004
   3.1299999999999994E-002    -1.1590941848364377E-004
   3.2149999999999984E-002    -3.8849911236525539E-004
   3.3000000000000002E-002    -6.7445988856365622E-004
   3.3849999999999991E-002    -9.4907628536924807E-004
   3.4700000000000009E-002    -1.1846457980686639E-003
   3.5549999999999998E-002    -1.3520165633871216E-003
   3.6399999999999988E-002    -1.4224505557971462E-003
   3.7250000000000005E-002    -1.3699338445891571E-003
   3.8099999999999995E-002    -1.1740221297616687E-003
   3.8949999999999985E-002    -8.2316953892677387E-004
   3.9800000000000002E-002    -3.1828192765958019E-004
   4.0649999999999992E-002     3.2400716833090246E-004
   4.1500000000000009E-002     1.0690223365795201E-003
   4.2349999999999999E-002     1.8634376004357314E-003
   4.3199999999999988E-002     2.6370005414533730E-003
   4.4050000000000006E-002     3.3068877239563511E-003
   4.4899999999999995E-002     3.7845653230109116E-003
   4.5749999999999985E-002     3.9845597724660663E-003
   4.6600000000000003E-002     3.8342032865595881E-003
   4.7449999999999992E-002     3.2832410328004478E-003
   4.8299999999999982E-002     2.3121814797925958E-003
   4.9149999999999999E-002     9.3855871113238858E-004
   4.9999999999999989E-002    -7.7944535979587466E-004
   5.0850000000000006E-002    -2.7422872792981071E-003
   5.1699999999999996E-002    -4.8114164324062781E-003
   5.2549999999999986E-002    -6.8148487416777124E-003
   5.3400000000000003E-002    -8.5561655482288522E-003
   5.4249999999999993E-002    -9.8272164426841148E-003
   5.5099999999999982E-002    -1.0424622744330439E-002
   5.5950000000000000E-002    -1.0169746460718696E-002
   5.6799999999999989E-002    -8.9309106441571081E-003
   5.7650000000000007E-002    -6.6458279464106963E-003
   5.8499999999999996E-002    -3.3413614173948393E-003
   5.9349999999999986E-002     8.5264715844978302E-004
   6.0200000000000004E-002     5.6985893016425742E-003
   6.1049999999999993E-002     1.0857454763362815E-002
   6.1899999999999983E-002     1.5907065004348221E-002
   6.2750000000000000E-002     2.0371278826096510E-002
   6.3599999999999990E-002     2.3757656854742175E-002
   6.4450000000000007E-002     2.5600111472608454E-002
   6.5299999999999997E-002     2.5502698619231740E-002
   6.6149999999999987E-002     2.3181219035362802E-002
   6.7000000000000004E-002     1.8499743271141712E-002
   6.7849999999999994E-002     1.1499951723412836E-002
   6.8699999999999983E-002     2.4215295252736860E-003
   6.9550000000000001E-002    -8.2882936040069438E-003
   7.0399999999999990E-002    -1.9978670212183715E-002
   7.1249999999999980E-002    -3.1815264655171441E-002
   7.2099999999999997E-002    -4.2819581420735560E-002
   7.2949999999999987E-002    -5.1928941105957846E-002
   7.3800000000000004E-002    -5.8076536283661093E-002
   7.4649999999999994E-002    -6.0287429240451565E-002
   7.5499999999999984E-002    -5.7783046700858168E-002
   7.6350000000000001E-002    -5.0083302961563110E-002
   7.7199999999999991E-002    -3.7094395095141480E-002
   7.8049999999999981E-002    -1.9170093730244260E-002
   7.8899999999999998E-002     2.8629857524267010E-003
   7.9749999999999988E-002     2.7721898137991342E-002
   8.0600000000000005E-002     5.3726902889849160E-002
   8.1449999999999995E-002     7.8900746170369282E-002
   8.2299999999999984E-002    0.10110090234216282
   8.3150000000000002E-002    0.11817578230502990
   8.3999999999999991E-002    0.12813515963762084
   8.4849999999999981E-002    0.12932418805896737
   8.5699999999999998E-002    0.12058928711491687
   8.6549999999999988E-002    0.10142421968075532
   8.7400000000000005E-002     7.2083398916827107E-002
   8.8249999999999995E-002     3.3649192654406593E-002
   8.9099999999999985E-002    -1.1960020884750275E-002
   8.9950000000000002E-002    -6.2050785158291502E-002
   9.0799999999999992E-002   -0.11328848088786991
   9.1649999999999981E-002   -0.16190074098967322
   9.2499999999999999E-002   -0.20393872239192154
   9.3349999999999989E-002   -0.23557613094209578
   9.4200000000000006E-002   -0.25342102910054842
   9.5049999999999996E-002   -0.25481109768891441
   9.5899999999999985E-002   -0.23806760601939059
   9.6750000000000003E-002   -0.20268626685903227
   9.7599999999999992E-002   -0.14945256641448534
   9.8449999999999982E-002    -8.0473119655985942E-002
   9.9299999999999999E-002     8.7674633245308359E-004
  0.10014999999999999          9.0088316097370780E-002
  0.10099999999999998         0.18173219058440609
  0.10185000000000000         0.26974229664638927
  0.10269999999999999         0.34776421576437444
  0.10355000000000000         0.40955736028721806
  0.10439999999999999         0.44943281529977797
  0.10524999999999998         0.46270128097821284
  0.10610000000000000         0.44609740254644903
  0.10694999999999999         0.39814193209061455
  0.10779999999999998         0.31940447242315018
  0.10865000000000000         0.21262862483506834
  0.10949999999999999          8.2698207706491639E-002
  0.11035000000000000         -6.3566818340047168E-002
  0.11119999999999999        -0.21777310535019340
  0.11204999999999998        -0.37045104984575239
  0.11290000000000000        -0.51165064604116361
  0.11374999999999999        -0.63159293719454257
  0.11459999999999998        -0.72132738174132860
  0.11545000000000000        -0.77335395722837286
  0.11629999999999999        -0.78216991327262753
  0.11715000000000000        -0.74470901243204202
  0.11799999999999999        -0.66064706426566044
  0.11884999999999998        -0.53255066912332616
  0.11970000000000000        -0.36585321797127796
  0.12054999999999999        -0.16864627927336606
  0.12139999999999998          4.8714719847494606E-002
  0.12225000000000000         0.27417441214530675
  0.12309999999999999         0.49468811254440581
  0.12395000000000000         0.69703601672906468
  0.12479999999999999         0.86867632210054091
  0.12564999999999998         0.99856670903256628
  0.12650000000000000          1.0778853974315179
  0.12734999999999999          1.1005971669932364
  0.12819999999999998          1.0637954534478951
  0.12905000000000000         0.96779311396165513
  0.12989999999999999         0.81595259271553511
  0.13074999999999998         0.61428119817312543
  0.13159999999999999         0.37081553862337424
  0.13245000000000001          9.4850372669429861E-002
  0.13329999999999997        -0.20393462578506316
  0.13414999999999999        -0.51639982313347410
  0.13500000000000001        -0.83484637372955151
  0.13584999999999997         -1.1538307392204885
  0.13669999999999999         -1.4708734977012328
  0.13755000000000001         -1.7869618216465200
  0.13839999999999997         -2.1068818612958040
  0.13924999999999998         -2.4393105289913506
  0.14010000000000000         -2.7966876326354750
  0.14094999999999996         -3.1948350956198404
  0.14179999999999998         -3.6524784020553884
  0.14265000000000000         -4.1907673980317002
  0.14350000000000002         -4.8328257717392500
  0.14434999999999998         -5.6032627501038874
  0.14520000000000000         -6.5279892761242699
  0.14605000000000001         -7.6345066386878955
  0.14689999999999998         -8.9523911678718466
  0.14774999999999999         -10.513935792082044
  0.14860000000000001         -12.355215622490885
  0.14944999999999997         -14.517768514867583
  0.15029999999999999         -17.050035550573217
  0.15115000000000001         -20.008726306822805
  0.15199999999999997         -23.460232937237365
  0.15284999999999999         -27.482737494953341
  0.15370000000000000         -32.167534641158682
  0.15454999999999997         -37.619880440753960
  0.15539999999999998         -43.960096455297759
  0.15625000000000000         -51.324365364998101
  0.15709999999999996         -59.866138731592201
  0.15794999999999998         -69.756465697169006
  0.15880000000000000         -81.185666164229389
  0.15965000000000001         -94.363774586852060
  0.16049999999999998         -109.52184705244537
  0.16134999999999999         -126.91533458349630
  0.16220000000000001         -146.82644782030394
  0.16304999999999997         -169.56443965326619
  0.16389999999999999         -195.46812199951955
  0.16475000000000001         -224.90961898639944
  0.16559999999999997         -258.29668586819008
  0.16644999999999999         -296.07440949281386
  0.16730000000000000         -338.72615202335680
  0.16814999999999997         -386.77967046144329
  0.16899999999999998         -440.80494386313228
  0.16985000000000000         -501.41477175979946
  0.17069999999999996         -569.26655170380764
  0.17154999999999998         -645.06199037184433
  0.17240000000000000         -729.54768858060879
  0.17325000000000002         -823.51743812795576
  0.17409999999999998         -927.80668365240717
  0.17494999999999999         -1043.2803572322443
  0.17580000000000001         -1170.8376886718891
  0.17664999999999997         -1311.4086421236398
  0.17749999999999999         -1465.9506480548025
  0.17835000000000001         -1635.4409093199861
  0.17919999999999997         -1820.8689264249319
  0.18004999999999999         -2023.2200319083699
  0.18090000000000001         -2243.4660437626990
  0.18174999999999997         -2482.5581712006301
  0.18259999999999998         -2741.4217891395206
  0.18345000000000000         -3020.9309509804925
  0.18429999999999996         -3321.8896852119642
  0.18514999999999998         -3645.0108499117068
  0.18600000000000000         -3990.9036797589779
  0.18684999999999996         -4360.0367332419682
  0.18769999999999998         -4752.7146209074463
  0.18855000000000000         -5169.0643016658360
  0.18940000000000001         -5609.0073870152464
  0.19024999999999997         -6072.1994039534438
  0.19109999999999999         -6558.0412250774634
  0.19195000000000001         -7065.6167936760721
  0.19279999999999997         -7593.6801099566219
  0.19364999999999999         -8140.6170753082051
  0.19450000000000001         -8704.4238991088478
  0.19534999999999997         -9282.6720490853277
  0.19619999999999999         -9872.4769526919954
  0.19705000000000000         -10470.495169620921
  0.19789999999999996         -11072.919509714842
  0.19874999999999998         -11675.421417079944
  0.19960000000000000         -12273.087707680015
  0.20044999999999996         -12860.454975861050
  0.20129999999999998         -13431.605855509413
  0.20215000000000000         -13980.074485848294
  0.20300000000000001         -14498.795988381245
  0.20384999999999998         -14980.174333852450
  0.20469999999999999         -15416.122349712903
  0.20555000000000001         -15798.199978384542
  0.20639999999999997         -16117.564021163997
  0.20724999999999999         -16364.995633164417
  0.20810000000000001         -16530.779436265726
  0.20894999999999997         -16605.043809640534
  0.20979999999999999         -16578.081416896810
  0.21065000000000000         -16440.104975490482
  0.21149999999999997         -16181.296528845412
  0.21234999999999998         -15792.002368390980
  0.21320000000000000         -15263.046355166469
  0.21404999999999996         -14585.768675835803
  0.21489999999999998         -13752.031352898452
  0.21575000000000000         -12754.376703853161
  0.21659999999999996         -11586.345323591762
  0.21744999999999998         -10242.750373127796
  0.21829999999999999         -8719.5933676112963
  0.21915000000000001         -7014.2187841710220
  0.21999999999999997         -5125.3263150384364
  0.22084999999999999         -3053.4003979899117
  0.22170000000000001         -800.81998537538311
  0.22254999999999997          1628.1863217342088
  0.22339999999999999          4227.5111927187027
  0.22425000000000000          6989.0904117188511
  0.22509999999999997          9902.5726551932257
  0.22594999999999998          12955.606428040111
  0.22680000000000000          16133.348047904452
  0.22764999999999996          19418.413540904847
  0.22849999999999998          22791.425953618742
  0.22935000000000000          26231.331652621855
  0.23019999999999996          29715.066582907890
  0.23104999999999998          33217.565049389814
  0.23190000000000000          36711.980382140173
  0.23275000000000001          40170.401495009777
  0.23359999999999997          43563.591698906785
  0.23444999999999999          46860.734206162240
  0.23530000000000001          50030.156754064599
  0.23614999999999997          53040.399331181063
  0.23699999999999999          55860.289385522570
  0.23785000000000001          58458.286466391000
  0.23869999999999997          60802.971930486805
  0.23954999999999999          62864.354612652533
  0.24040000000000000          64614.320733131550
  0.24124999999999996          66026.250608797913
  0.24209999999999998          67075.126905918005
  0.24295000000000000          67738.382683063770
  0.24379999999999996          67996.718859416898
  0.24464999999999998          67833.974368075986
  0.24550000000000000          67236.672206529940
  0.24634999999999996          66194.807027265459
  0.24719999999999998          64702.693489941121
  0.24804999999999999          62758.974809494073
  0.24890000000000001          60366.184426380452
  0.24974999999999997          57530.566714885754
  0.25059999999999999          54262.692132873563
  0.25145000000000001          50577.876387743192
  0.25229999999999997          46495.637195443109
  0.25314999999999999          42039.493737264704
  0.25400000000000000          37236.930352140786
  0.25484999999999997          32118.885286101060
  0.25569999999999998          26719.519535849642
  0.25655000000000000          21076.211746631252
  0.25739999999999996          15229.443862802669
  0.25824999999999998          9222.2572116684787
  0.25910000000000000          3098.9288455229034
  0.25994999999999996         -3094.7830733310147
  0.26079999999999998         -9311.4193154745735
  0.26164999999999999         -15502.732022672550
  0.26249999999999996         -21621.353430315430
  0.26334999999999997         -27620.659023771484
  0.26419999999999999         -33454.549811314551
  0.26505000000000001         -39077.628285779567
  0.26589999999999997         -44446.768356801462
  0.26674999999999999         -49522.224532141248
  0.26760000000000000         -54266.740744285380
  0.26844999999999997         -58645.862064696274
  0.26929999999999998         -62628.311461471822
  0.27015000000000000         -66186.994457886467
  0.27099999999999996         -69299.346613867951
  0.27184999999999998         -71946.691230933764
  0.27270000000000000         -74114.527056365754
  0.27354999999999996         -75792.615539721126
  0.27439999999999998         -76975.931138196873
  0.27524999999999999         -77664.423141596766
  0.27609999999999996         -77861.851299104688
  0.27694999999999997         -77575.535860201722
  0.27779999999999999         -76817.386825906913
  0.27865000000000001         -75604.264175531018
  0.27949999999999997         -73956.774447671443
  0.28034999999999999         -71897.860075569901
  0.28120000000000001         -69453.185476778090
  0.28204999999999997         -66652.171491521207
  0.28289999999999998         -63527.072616821089
  0.28375000000000000         -60111.217427145137
  0.28459999999999996         -56438.693275055521
  0.28544999999999998         -52545.474911508165
  0.28630000000000000         -48469.495425306770
  0.28714999999999996         -44248.836355855681
  0.28799999999999998         -39920.195100289966
  0.28885000000000000         -35518.932455378454
  0.28969999999999996         -31080.632531415551
  0.29054999999999997         -26641.265431723412
  0.29139999999999999         -22235.150079440147
  0.29224999999999995         -17893.748075406311
  0.29309999999999997         -13645.661558471644
  0.29394999999999999         -9518.3590391956768
  0.29480000000000001         -5537.7412718139722
  0.29564999999999997         -1726.8038025631386
  0.29649999999999999          1894.9294388442904
  0.29735000000000000          5310.6423041049020
  0.29819999999999997          8505.3568914279731
  0.29904999999999998          11466.650365958434
  0.29990000000000000          14185.561681924597
  0.30074999999999996          16656.568008704118
  0.30159999999999998          18875.772562483133
  0.30245000000000000          20840.527086920076
  0.30329999999999996          22550.903160849364
  0.30414999999999998          24010.030919985416
  0.30499999999999999          25224.085242657184
  0.30584999999999996          26200.472567050514
  0.30669999999999997          26947.065545299865
  0.30754999999999999          27473.036753505156
  0.30840000000000001          27789.909720317919
  0.30924999999999997          27910.904882515977
  0.31009999999999999          27849.256567738761
  0.31095000000000000          27617.785972535494
  0.31179999999999997          27230.418176377927
  0.31264999999999998          26702.761575191842
  0.31350000000000000          26050.165271095688
  0.31434999999999996          25286.574552734663
  0.31519999999999998          24425.566858044873
  0.31605000000000000          23481.968044298876
  0.31689999999999996          22470.796265028079
  0.31774999999999998          21405.393595579422
  0.31859999999999999          20297.434289027962
  0.31944999999999996          19158.481179046681
  0.32029999999999997          18000.470867850221
  0.32114999999999999          16834.164742734029
  0.32199999999999995          15668.462554843469
  0.32284999999999997          14511.768822773640
  0.32369999999999999          13372.685160494600
  0.32455000000000001          12258.998640677108
  0.32539999999999997          11176.463165439563
  0.32624999999999998          10129.533893718990
  0.32710000000000000          9122.6386103272089
  0.32794999999999996          8159.9731408464877
  0.32879999999999998          7244.4542034971610
  0.32965000000000000          6377.8150490474582
  0.33049999999999996          5561.5808107346629
  0.33134999999999998          4797.2533727233777
  0.33220000000000000          4085.4441413075806
  0.33304999999999996          3425.6016067605578
  0.33389999999999997          2817.0046966265941
  0.33474999999999999          2259.1579420764974
  0.33559999999999995          1751.2257629088260
  0.33644999999999997          1291.3701620906170
  0.33729999999999999          877.26974826365620
  0.33815000000000001          506.80098409747336
  0.33899999999999997          177.95629894787572
  0.33984999999999999         -111.53768341027290
  0.34070000000000000         -364.17551016705175
  0.34154999999999996         -582.47011322053118
  0.34239999999999998         -768.97039886658661
  0.34325000000000000         -926.14569608801446
  0.34409999999999996         -1056.2320195365583
  0.34494999999999998         -1161.2172339610415
  0.34580000000000000         -1243.2551617976635
  0.34664999999999996         -1304.7753166853156
  0.34749999999999998         -1348.0250260883881
  0.34834999999999999         -1374.9334981395168
  0.34919999999999995         -1387.4197386572619
  0.35004999999999997         -1387.6490829309973
  0.35089999999999999         -1377.5350512460045
  0.35174999999999995         -1358.2598981859237
  0.35259999999999997         -1330.7435755067113
  0.35344999999999999         -1296.3247566089528
  0.35430000000000000         -1256.4527952306457
  0.35514999999999997         -1212.0454648484954
  0.35599999999999998         -1163.7367132196587
  0.35685000000000000         -1112.5709096557230
  0.35769999999999996         -1059.8434943386126
  0.35854999999999998         -1006.2941383975690
  0.35940000000000000         -951.99534830881396
  0.36024999999999996         -897.09088237138553
  0.36109999999999998         -842.23425041301061
  0.36194999999999999         -787.99158444363718
  0.36279999999999996         -734.40719936431208
  0.36364999999999997         -681.42919698861988
  0.36449999999999999         -629.33124234379090
  0.36534999999999995         -578.35959608600865
  0.36619999999999997         -528.39854894806626
  0.36704999999999999         -479.38058522060635
  0.36790000000000000         -431.79113459610232
  0.36874999999999997         -386.19576566722787