 -0.12000000000000000          0.0000000000000000
 -0.11914999999999999          0.0000000000000000
 -0.11830000000000000          0.0000000000000000
 -0.11745000000000000          0.0000000000000000
 -0.11660000000000000          0.0000000000000000
 -0.11574999999999999          0.0000000000000000
 -0.11490000000000000          0.0000000000000000
 -0.11405000000000000          0.0000000000000000
 -0.11320000000000000         -1.4139359383884298E-023
 -0.11234999999999999         -1.8834442564319261E-022
 -0.11150000000000000         -1.2558187284533694E-021
 -0.11065000000000000         -5.4748800909427218E-021
 -0.10979999999999999         -1.6953681888736878E-020
 -0.10894999999999999         -3.6839662400283259E-020
 -0.10810000000000000         -4.4423918924137640E-020
 -0.10725000000000000          4.3003612782316513E-020
 -0.10639999999999999          4.1632321991640999E-019
 -0.10554999999999999          1.3562466941888637E-018
 -0.10470000000000000          3.0063075276594772E-018
 -0.10385000000000000          4.7736544902255498E-018
 -0.10299999999999999          4.3642616145977377E-018
 -0.10214999999999999         -3.0529864832896260E-018
 -0.10130000000000000         -2.4298217562871853E-017
 -0.10045000000000000         -6.4383461089147924E-017
  -9.9599999999999994E-002    -1.1801376755022276E-016
  -9.8750000000000004E-002    -1.5738999232366280E-016
  -9.7900000000000001E-002    -1.2218224099671304E-016
  -9.7049999999999997E-002     7.6560308069123305E-017
  -9.6199999999999994E-002     5.2371440092229720E-016
  -9.5349999999999990E-002     1.2291184684124608E-015
  -9.4500000000000001E-002     2.0273299753085335E-015
  -9.3649999999999997E-002     2.4878549479735342E-015
  -9.2799999999999994E-002     1.9080681261062392E-015
  -9.1950000000000004E-002    -5.2577053953099829E-016
  -9.1100000000000000E-002    -5.3550782885393985E-015
  -9.0249999999999997E-002    -1.2279553940798110E-014
  -8.9399999999999993E-002    -1.9577495234483234E-014
  -8.8549999999999990E-002    -2.3829871019957101E-014
  -8.7700000000000000E-002    -2.0318897637463912E-014
  -8.6849999999999997E-002    -4.3625861866649939E-015
  -8.5999999999999993E-002     2.6467519906938708E-014
  -8.5150000000000003E-002     6.9764735566349254E-014
  -8.4300000000000000E-002     1.1631810709357236E-013
  -8.3449999999999996E-002     1.4994364922635194E-013
  -8.2600000000000007E-002     1.5005580831715482E-013
  -8.1749999999999989E-002     9.7143498473313682E-014
  -8.0900000000000000E-002    -1.9817255135631405E-014
  -8.0049999999999996E-002    -1.9606933845614729E-013
  -7.9199999999999993E-002    -4.0647867234230700E-013
  -7.8350000000000003E-002    -6.0581794414797420E-013
  -7.7499999999999999E-002    -7.3477467506866233E-013
  -7.6649999999999996E-002    -7.3075637462237371E-013
  -7.5800000000000006E-002    -5.4112175868812084E-013
  -7.4949999999999989E-002    -1.3611842775020845E-013
  -7.4099999999999999E-002     4.8026053325913317E-013
  -7.3249999999999996E-002     1.2617677714852834E-012
  -7.2399999999999992E-002     2.1131277651003523E-012
  -7.1550000000000002E-002     2.8855008143009922E-012
  -7.0699999999999999E-002     3.3780291668697846E-012
  -6.9849999999999995E-002     3.3533399047931537E-012
  -6.9000000000000006E-002     2.5763894598229739E-012
  -6.8149999999999988E-002     8.8148573949550060E-013
  -6.7299999999999999E-002    -1.7399101517887034E-012
  -6.6449999999999995E-002    -5.0554705873286771E-012
  -6.5599999999999992E-002    -8.5522662549147616E-012
  -6.4750000000000002E-002    -1.1483006952940148E-011
  -6.3899999999999998E-002    -1.3020559454019384E-011
  -6.3049999999999995E-002    -1.2500639478306002E-011
  -6.2199999999999998E-002    -9.6788384462234301E-012
  -6.1350000000000002E-002    -4.8873425805970461E-012
  -6.0499999999999998E-002     1.0234885022608091E-012
  -5.9650000000000002E-002     7.0121828660053020E-012
  -5.8799999999999998E-002     1.2377638763202262E-011
  -5.7950000000000002E-002     1.7291338259335348E-011
  -5.7099999999999998E-002     2.3029882963964446E-011
  -5.6249999999999994E-002     3.1621834261618224E-011
  -5.5400000000000005E-002     4.4792166125218845E-011
  -5.4550000000000001E-002     6.2391429485784945E-011
  -5.3699999999999998E-002     8.0845422352042076E-011
  -5.2849999999999994E-002     9.2401117711456601E-011
  -5.2000000000000005E-002     8.5917909754002891E-011
  -5.1150000000000001E-002     4.9575000988738299E-011
  -5.0299999999999997E-002    -2.4826942079421823E-011
  -4.9449999999999994E-002    -1.3708687143778469E-010
  -4.8600000000000004E-002    -2.7504080091544907E-010
  -4.7750000000000001E-002    -4.1395050926694339E-010
  -4.6899999999999997E-002    -5.1989265196687013E-010
  -4.6049999999999994E-002    -5.5690525027268363E-010
  -4.5200000000000004E-002    -4.9612931330269835E-010
  -4.4350000000000001E-002    -3.2408100489094468E-010
  -4.3499999999999997E-002    -4.7086882011968824E-011
  -4.2649999999999993E-002     3.0991251120497047E-010
  -4.1800000000000004E-002     7.0976084611713976E-010
  -4.0950000000000000E-002     1.1117962804024279E-009
  -4.0099999999999997E-002     1.4784504574914404E-009
  -3.9249999999999993E-002     1.7756690305131973E-009
  -3.8400000000000004E-002     1.9658014349504919E-009
  -3.7550000000000000E-002     1.9958723343367391E-009
  -3.6699999999999997E-002     1.7884766329926080E-009
  -3.5850000000000007E-002     1.2445742425728543E-009
  -3.5000000000000003E-002     2.6547740941832332E-010
  -3.4150000000000000E-002    -1.2051773609679374E-009
  -3.3299999999999996E-002    -3.1282210100784175E-009
  -3.2450000000000007E-002    -5.3223479788708886E-009
  -3.1600000000000003E-002    -7.4464775383057905E-009
  -3.0750000000000000E-002    -9.0297730291195709E-009
  -2.9899999999999996E-002    -9.5552522652462890E-009
  -2.9050000000000006E-002    -8.5841488596828485E-009
  -2.8200000000000003E-002    -5.8891909194028269E-009
  -2.7349999999999999E-002    -1.5542248059350307E-009
  -2.6499999999999996E-002     3.9990270237330785E-009
  -2.5650000000000006E-002     1.0076252899511062E-008
  -2.4800000000000003E-002     1.5855729075144127E-008
  -2.3949999999999999E-002     2.0568692010866253E-008
  -2.3099999999999996E-002     2.3650486380410864E-008
  -2.2250000000000006E-002     2.4802174465362749E-008
  -2.1400000000000002E-002     2.3933496083821903E-008
  -2.0549999999999999E-002     2.1008960697607974E-008
  -1.9699999999999995E-002     1.5870552477231220E-008
  -1.8850000000000006E-002     8.1411013081576973E-009
  -1.8000000000000002E-002    -2.6985667632051079E-009
  -1.7149999999999999E-002    -1.7022621312051115E-008
  -1.6299999999999995E-002    -3.4617900941711333E-008
  -1.5450000000000005E-002    -5.4233781567081498E-008
  -1.4600000000000002E-002    -7.3328052881103494E-008
  -1.3749999999999998E-002    -8.8196619564518051E-008
  -1.2899999999999995E-002    -9.4577125445012016E-008
  -1.2050000000000005E-002    -8.8655166533184134E-008
  -1.1200000000000002E-002    -6.8226422666733237E-008
  -1.0349999999999998E-002    -3.3649262133763665E-008
  -9.5000000000000084E-003     1.1784610188729380E-008
  -8.6500000000000049E-003     6.2295770311300507E-008
  -7.8000000000000014E-003     1.1086030029623945E-007
  -6.9499999999999978E-003     1.5093496819090019E-007
  -6.1000000000000082E-003     1.7811624483866383E-007
  -5.2500000000000047E-003     1.9112461648634604E-007
  -4.4000000000000011E-003     1.9166478715758316E-007
  -3.5499999999999976E-003     1.8308007464875304E-007
  -2.7000000000000079E-003     1.6818479310345151E-007
  -1.8500000000000044E-003     1.4705519909702812E-007
  -1.0000000000000009E-003     1.1573135379217581E-007
  -1.4999999999999736E-004     6.6606420880668224E-008
   6.9999999999999230E-004    -9.2267178662725194E-009
   1.5499999999999958E-003    -1.1811306360240563E-007
   2.3999999999999994E-003    -2.5957491829768924E-007
   3.2500000000000029E-003    -4.2315856217816783E-007
   4.0999999999999925E-003    -5.8778320996608330E-007
   4.9499999999999961E-003    -7.2435852143505242E-007
   5.7999999999999996E-003    -8.0142588749441531E-007
   6.6499999999999893E-003    -7.9249822718012427E-007
   7.5000000000000067E-003    -6.8300904805821145E-007
   8.3499999999999963E-003    -4.7466740860874105E-007
   9.1999999999999860E-003    -1.8563590214440580E-007
   1.0050000000000003E-002     1.5376026906827389E-007
   1.0899999999999993E-002     5.0858935524105808E-007
   1.1750000000000010E-002     8.4768112316970832E-007
   1.2600000000000000E-002     1.1498815117599323E-006
   1.3449999999999990E-002     1.4057875577494243E-006
   1.4300000000000007E-002     1.6140781878025761E-006
   1.5149999999999997E-002     1.7735080822485435E-006
   1.5999999999999986E-002     1.8734969485625932E-006
   1.6850000000000004E-002     1.8871879742339457E-006
   1.7699999999999994E-002     1.7705754960276536E-006
   1.8549999999999983E-002     1.4695793929541291E-006
   1.9400000000000001E-002     9.3441888866404060E-007
   2.0249999999999990E-002     1.3792531272131474E-007
   2.1100000000000008E-002    -9.0740283682154075E-007
   2.1949999999999997E-002    -2.1391034078829778E-006
   2.2799999999999987E-002    -3.4452767026228100E-006
   2.3650000000000004E-002    -4.6770360743541035E-006
   2.4499999999999994E-002    -5.6706308133629742E-006
   2.5349999999999984E-002    -6.2739107287930788E-006
   2.6200000000000001E-002    -6.3706292442228351E-006
   2.7049999999999991E-002    -5.8966115162090251E-006
   2.7900000000000008E-002    -4.8446216928942394E-006
   2.8749999999999998E-002    -3.2582029838007624E-006
   2.9599999999999987E-002    -1.2184133057353283E-006
   3.0450000000000005E-002     1.1705954388592565E-006
   3.1299999999999994E-002     3.7914726891095641E-006
   3.2149999999999984E-002     6.5153319968264515E-006
   3.3000000000000002E-002     9.1957003286427805E-006
   3.3849999999999991E-002     1.1658661466204663E-005
   3.4700000000000009E-002     1.3696147825591039E-005
   3.5549999999999998E-002     1.5069057793103252E-005
   3.6399999999999988E-002     1.5524912489727129E-005
   3.7250000000000005E-002     1.4829942006440449E-005
   3.8099999999999995E-002     1.2810883614817438E-005
   3.8949999999999985E-002     9.3975700587464995E-006
   3.9800000000000002E-002     4.6558344110020887E-006
   4.0649999999999992E-002    -1.1979004807555068E-006
   4.1500000000000009E-002    -7.8052613233696706E-006
   4.2349999999999999E-002    -1.4696579627723358E-005
   4.3199999999999988E-002    -2.1337533041926075E-005
   4.4050000000000006E-002    -2.7181891955352422E-005
   4.4899999999999995E-002    -3.1720407906299796E-005
   4.5749999999999985E-002    -3.4518350630209380E-005
   4.6600000000000003E-002    -3.5238464584085961E-005
   4.7449999999999992E-002    -3.3651560442592759E-005
   4.8299999999999982E-002    -2.9639832551143557E-005
   4.9149999999999999E-002    -2.3200492631480718E-005
   4.9999999999999989E-002    -1.4453672035708538E-005
   5.0850000000000006E-002    -3.6570321255426392E-006
   5.1699999999999996E-002     8.7773307004952515E-006
   5.2549999999999986E-002     2.2270032557766435E-005
   5.3400000000000003E-002     3.6075158603661816E-005
   5.4249999999999993E-002     4.9301916275466993E-005
   5.5099999999999982E-002     6.0960852145774638E-005
   5.5950000000000000E-002     7.0033708998334243E-005
   5.6799999999999989E-002     7.5559591907291897E-005
   5.7650000000000007E-002     7.6727052377772081E-005
   5.8499999999999996E-002     7.2960185453878768E-005
   5.9349999999999986E-002     6.3987092311478539E-005
   6.0200000000000004E-002     4.9883137694445442E-005
   6.1049999999999993E-002     3.1085822098622811E-005
   6.1899999999999983E-002     8.3813019561154849E-006
   6.2750000000000000E-002    -1.7133526185083339E-005
   6.3599999999999990E-002    -4.4107938240334861E-005
   6.4450000000000007E-002    -7.1007646046488611E-005
   6.5299999999999997E-002    -9.6194939849758601E-005
   6.6149999999999987E-002    -1.1801238926267901E-004
   6.7000000000000004E-002    -1.3487225629192105E-004
   6.7849999999999994E-002    -1.4534345636511330E-004
   6.8699999999999983E-002    -1.4824059162117301E-004
   6.9550000000000001E-002    -1.4270078361725740E-004
   7.0399999999999990E-002    -1.2825431144931304E-004
   7.1249999999999980E-002    -1.0487147909665674E-004
   7.2099999999999997E-002    -7.2987153837213528E-005
   7.2949999999999987E-002    -3.3493046212696273E-005
   7.3800000000000004E-002     1.2309023969003360E-005
   7.4649999999999994E-002     6.2790945753298281E-005
   7.5499999999999984E-002     1.1610805464848162E-004
   7.6350000000000001E-002     1.7035219547954471E-004
   7.7199999999999991E-002     2.2370726111960485E-004
   7.8049999999999981E-002     2.7461698004401744E-004
   7.8899999999999998E-002     3.2193322376566311E-004
   7.9749999999999988E-002     3.6504860618755857E-004
   8.0600000000000005E-002     4.0399193349071770E-004
   8.1449999999999995E-002     4.3947929615279814E-004
   8.2299999999999984E-002     4.7294400082304106E-004
   8.3150000000000002E-002     5.0649221941684395E-004
   8.3999999999999991E-002     5.4286625571822592E-004
   8.4849999999999981E-002     5.8533680702438872E-004
   8.5699999999999998E-002     6.3765358986636177E-004
   8.6549999999999988E-002     7.0392137712821682E-004
   8.7400000000000005E-002     7.8852373248433682E-004
   8.8249999999999995E-002     8.9604436543737820E-004
   8.9099999999999985E-002     1.0311931020418079E-003
   8.9950000000000002E-002     1.1987503550228205E-003
   9.0799999999999992E-002     1.4036081219302033E-003
   9.1649999999999981E-002     1.6508234004527721E-003
   9.2499999999999999E-002     1.9456230174102445E-003
   9.3349999999999989E-002     2.2936694821385248E-003
   9.4200000000000006E-002     2.7011722024083691E-003
   9.5049999999999996E-002     3.1752010712988782E-003
   9.5899999999999985E-002     3.7235311988879382E-003
   9.6750000000000003E-002     4.3553565543759803E-003
   9.7599999999999992E-002     5.0809442100661906E-003
   9.8449999999999982E-002     5.9121661642294642E-003
   9.9299999999999999E-002     6.8621829801605704E-003
  0.10014999999999999          7.9458272198419926E-003
  0.10099999999999998          9.1795848686735248E-003
  0.10185000000000000          1.0581315783904761E-002
  0.10269999999999999          1.2171000736633224E-002
  0.10355000000000000          1.3970228244344986E-002
  0.10439999999999999          1.6002413779972868E-002
  0.10524999999999998          1.8293154395184294E-002
  0.10610000000000000          2.0869853349219338E-002
  0.10694999999999999          2.3761728063165358E-002
  0.10779999999999998          2.6999907651549977E-002
  0.10865000000000000          3.0617885763144687E-002
  0.10949999999999999          3.4650517080885450E-002
  0.11035000000000000          3.9134538847421074E-002
  0.11119999999999999          4.4107978487827812E-002
  0.11204999999999998          4.9609921522530444E-002
  0.11290000000000000          5.5681415243146820E-002
  0.11374999999999999          6.2361890082824556E-002
  0.11459999999999998          6.9693772204239515E-002
  0.11545000000000000          7.7716948567153693E-002
  0.11629999999999999          8.6471927924881412E-002
  0.11715000000000000          9.5999128488822583E-002
  0.11799999999999999         0.10633383084922098
  0.11884999999999998         0.11751113908408699
  0.11970000000000000         0.12956011770391934
  0.12054999999999999         0.14250849362101242
  0.12139999999999998         0.15637402428322106
  0.12225000000000000         0.17117238056494036
  0.12309999999999999         0.18690748056403264
  0.12395000000000000         0.20357411568441347
  0.12479999999999999         0.22115670043550612
  0.12564999999999998         0.23962813245734588
  0.12650000000000000         0.25893704297566084
  0.12734999999999999         0.27902710928378077
  0.12819999999999998         0.29981833081810816
  0.12905000000000000         0.32120848985356421
  0.12989999999999999         0.34306947378102520
  0.13074999999999998         0.36525511380664960
  0.13159999999999999         0.38759462768833219
  0.13245000000000001         0.40988240397354297
  0.13329999999999997         0.43189577487506375
  0.13414999999999999         0.45336392251386387
  0.13500000000000001         0.47400608748804951
  0.13584999999999997         0.49350299368752804
  0.13669999999999999         0.51148889955754118
  0.13755000000000001         0.52759451020009429
  0.13839999999999997         0.54141436484398930
  0.13924999999999998         0.55249580476717952
  0.14010000000000000         0.56039581795818538
  0.14094999999999996         0.56462919045892346
  0.14179999999999998         0.56468920803877221
  0.14265000000000000         0.56006891165140027
  0.14350000000000002         0.55024597974724487
  0.14434999999999998         0.53470646241366060
  0.14520000000000000         0.51289634147668528
  0.14605000000000001         0.48431026603163285
  0.14689999999999998         0.44841613668765717
  0.14774999999999999         0.40474295038307689
  0.14860000000000001         0.35280681729240337
  0.14944999999999997         0.29219030067157292
  0.15029999999999999         0.22254069770062176
  0.15115000000000001         0.14354773881497873
  0.15199999999999997          5.5008852718954178E-002
  0.15284999999999999         -4.3203351439940196E-002
  0.15370000000000000        -0.15111934317800044
  0.15454999999999997        -0.26867283869397662
  0.15539999999999998        -0.39568438101186620
  0.15625000000000000        -0.53184480239817977
  0.15709999999999996        -0.67674238589862212
  0.15794999999999998        -0.82976603312963093
  0.15880000000000000        -0.99030030251347290
  0.15965000000000001         -1.1573613250240642
  0.16049999999999998         -1.3298944906050090
  0.16134999999999999         -1.5067387858825134
  0.16220000000000001         -1.6864874426708265
  0.16304999999999997         -1.8676430403175046
  0.16389999999999999         -2.0485608093996794
  0.16475000000000001         -2.2274062977543654
  0.16559999999999997         -2.4023696419086509
  0.16644999999999999         -2.5714645168751411
  0.16730000000000000         -2.7326843289460077
  0.16814999999999997         -2.8837737748623207
  0.16899999999999998         -3.0225869796526110
  0.16985000000000000         -3.1468780574696154
  0.17069999999999996         -3.2542976576350280
  0.17154999999999998         -3.3426799660011715
  0.17240000000000000         -3.4099198083267281
  0.17325000000000002         -3.4539139036988940
  0.17409999999999998         -3.4726586742459462
  0.17494999999999999         -3.4645014019074050
  0.17580000000000001         -3.4277287978219362
  0.17664999999999997         -3.3611184035758366
  0.17749999999999999         -3.2634123553052379
  0.17835000000000001         -3.1338826038539302
  0.17919999999999997         -2.9718778519802029
  0.18004999999999999         -2.7771613441991856
  0.18090000000000001         -2.5499760975449535
  0.18174999999999997         -2.2907494520696110
  0.18259999999999998         -2.0003635084714007
  0.18345000000000000         -1.6800285245088529
  0.18429999999999996         -1.3314258074065783
  0.18514999999999998        -0.95667322248607023
  0.18600000000000000        -0.55806745353539544
  0.18684999999999996        -0.13839894240746034
  0.18769999999999998         0.29916670512952181
  0.18855000000000000         0.75122667709254343
  0.18940000000000001          1.2140001418871449
  0.19024999999999997          1.6835748866618576
  0.19109999999999999          2.1556683196821229
  0.19195000000000001          2.6259521944437405
  0.19279999999999997          3.0898766620714215
  0.19364999999999999          3.5429302639820768
  0.19450000000000001          3.9804768763912981
  0.19534999999999997          4.3979888075822622
  0.19619999999999999          4.7909999556779725
  0.19705000000000000          5.1551989093221291
  0.19789999999999996          5.4864764442833964
  0.19874999999999998          5.7809846371624838
  0.19960000000000000          6.0351868419425809
  0.20044999999999996          6.2459635221316034
  0.20129999999999998          6.4105072403067407
  0.20215000000000000          6.5265266893906499
  0.20300000000000001          6.5922057765727544
  0.20384999999999998          6.6061582445483316
  0.20469999999999999          6.5676910693735495
  0.20555000000000001          6.4765141474637975
  0.20639999999999997          6.3328932741666382
  0.20724999999999999          6.1377376392269296
  0.20810000000000001          5.8925650071990257
  0.20894999999999997          5.5992638523766596
  0.20979999999999999          5.2604271222189363
  0.21065000000000000          4.8791243026955042
  0.21149999999999997          4.4587088618647419
  0.21234999999999998          4.0030493710904009
  0.21320000000000000          3.5162210338846012
  0.21404999999999996          3.0028571582599577
  0.21489999999999998          2.4677811903440583
  0.21575000000000000          1.9159489623306323
  0.21659999999999996          1.3526436106351212
  0.21744999999999998         0.78325157449514216
  0.21829999999999999         0.21298822418167668
  0.21915000000000001        -0.35280412029630359
  0.21999999999999997        -0.90904906433170818
  0.22084999999999999         -1.4506868677762659
  0.22170000000000001         -1.9729982535074302
  0.22254999999999997         -2.4713181725933091
  0.22339999999999999         -2.9416708760024544
  0.22425000000000000         -3.3800913534013954
  0.22509999999999997         -3.7831006809961849
  0.22594999999999998         -4.1477457667601847
  0.22680000000000000         -4.4713399019262887
  0.22764999999999996         -4.7516642689717994
  0.22849999999999998         -4.9869599808337268
  0.22935000000000000         -5.1760748256154221
  0.23019999999999996         -5.3182732402402069
  0.23104999999999998         -5.4133018431093420
  0.23190000000000000         -5.4615267109271848
  0.23275000000000001         -5.4635826293582070
  0.23359999999999997         -5.4207379238772146
  0.23444999999999999         -5.3345404018599751
  0.23530000000000001         -5.2067809532327614
  0.23614999999999997         -5.0398089622107589
  0.23699999999999999         -4.8360389365151200
  0.23785000000000001         -4.5982851476930708
  0.23869999999999997         -4.3294919030894690
  0.23954999999999999         -4.0330126499494501
  0.24040000000000000         -3.7121967254743549
  0.24124999999999996         -3.3705943503520777
  0.24209999999999998         -3.0118805580955921
  0.24295000000000000         -2.6397285315520786
  0.24379999999999996         -2.2578253081305473
  0.24464999999999998         -1.8697406390828408
  0.24550000000000000         -1.4789940066873211
  0.24634999999999996         -1.0889362555813895
  0.24719999999999998        -0.70287012508025959
  0.24804999999999999        -0.32390728256772916
  0.24890000000000001          4.4984480442243624E-002
  0.24974999999999997         0.40095041253519559
  0.25059999999999999         0.74134480651702162
  0.25145000000000001          1.0636711287420344
  0.25229999999999997          1.3657239564816619
  0.25314999999999999          1.6454931255590055
  0.25400000000000000          1.9012894997094056
  0.25484999999999997          2.1315071839173512
  0.25569999999999998          2.3350869547650097
  0.25655000000000000          2.5110181148157347
  0.25739999999999996          2.6585907846908921
  0.25824999999999998          2.7773228285042411
  0.25910000000000000          2.8669379716175030
  0.25994999999999996          2.9272667329390578
  0.26079999999999998          2.9584170021042429
  0.26164999999999999          2.9606629846471533
  0.26249999999999996          2.9345560373305881
  0.26334999999999997          2.8808240634891567
  0.26419999999999999          2.8005933294847525
  0.26505000000000001          2.6950445404614234
  0.26589999999999997          2.5655379485410403
  0.26674999999999999          2.4137280753587302
  0.26760000000000000          2.2412629279353680
  0.26844999999999997          2.0498427044496834
  0.26929999999999998          1.8414257556674432
  0.27015000000000000          1.6179110537018262
  0.27099999999999996          1.3814512930058580
  0.27184999999999998          1.1341763012224879
  0.27270000000000000         0.87838893966152398
  0.27354999999999996         0.61647347612078740
  0.27439999999999998         0.35086001395713673
  0.27524999999999999          8.3992043927117732E-002
  0.27609999999999996        -0.18165576553277307
  0.27694999999999997        -0.44375961541440856
  0.27779999999999999        -0.69996234603216367
  0.27865000000000001        -0.94805531814495592
  0.27949999999999997         -1.1858283629098127
  0.28034999999999999         -1.4112208438489364
  0.28120000000000001         -1.6222640613394665
  0.28204999999999997         -1.8171028626216337
  0.28289999999999998         -1.9940321863502652
  0.28375000000000000         -2.1514636251792609
  0.28459999999999996         -2.2880782662641872
  0.28544999999999998         -2.4027453060503392
  0.28630000000000000         -2.4945283566661631
  0.28714999999999996         -2.5628070874711057
  0.28799999999999998         -2.6071229533706259
  0.28885000000000000         -2.6272879420676629
  0.28969999999999996         -2.6233365150535422
  0.29054999999999997         -2.5955163741137079
  0.29139999999999999         -2.5442702489073796
  0.29224999999999995         -2.4703229622342593
  0.29309999999999997         -2.3745660296210276
  0.29394999999999999         -2.2581226258010418
  0.29480000000000001         -2.1223837506286189
  0.29564999999999997         -1.9688573252550523
  0.29649999999999999         -1.7992955721155175
  0.29735000000000000         -1.6155366486096128
  0.29819999999999997         -1.4194932342463980
  0.29904999999999998         -1.2132739833855803
  0.29990000000000000        -0.99891711471917999
  0.30074999999999996        -0.77869675300854913
  0.30159999999999998        -0.55467118039331464
  0.30245000000000000        -0.32912863595614167
  0.30329999999999996        -0.10409996986294193
  0.30414999999999998         0.11816273450351031
  0.30499999999999999         0.33561789242430845
  0.30584999999999996         0.54634701073593162
  0.30669999999999997         0.74843905667751898
  0.30754999999999999         0.94023085175801935
  0.30840000000000001          1.1202725532965001
  0.30924999999999997          1.2870528325910287
  0.31009999999999999          1.4394753672290481
  0.31095000000000000          1.5764355461222974
  0.31179999999999997          1.6971542045166987
  0.31264999999999998          1.8008802090647251
  0.31350000000000000          1.8872658324599207
  0.31434999999999996          1.9561097440020268
  0.31519999999999998          2.0073286546532039
  0.31605000000000000          2.0411602574050245
  0.31689999999999996          2.0578216075759554
  0.31774999999999998          2.0578528460676240
  0.31859999999999999          2.0418613121213207
  0.31944999999999996          2.0105001992988978
  0.32029999999999997          1.9647460006821922
  0.32114999999999999          1.9056012248208500
  0.32199999999999995          1.8342169245293023
  0.32284999999999997          1.7518197974715766
  0.32369999999999999          1.6597096740218669
  0.32455000000000001          1.5592097500235169
  0.32539999999999997          1.4515859196788570
  0.32624999999999998          1.3381729610157547
  0.32710000000000000          1.2202196188964476
  0.32794999999999996          1.0989881460249786
  0.32879999999999998         0.97570888718298587
  0.32965000000000000         0.85162794331181224
  0.33049999999999996         0.72792260636262407
  0.33134999999999998         0.60576477427787634
  0.33220000000000000         0.48620490556163221
  0.33304999999999996         0.37018994844906505
  0.33389999999999997         0.25857189834442312
  0.33474999999999999         0.15201702435441555
  0.33559999999999995          5.1096699311674459E-002
  0.33644999999999997         -4.3721407723554900E-002
  0.33729999999999999        -0.13205343948342330
  0.33815000000000001        -0.21355431190180535
  0.33899999999999997        -0.28796586905256955
  0.33984999999999999        -0.35504864232842376
  0.34070000000000000        -0.41467665368835560
  0.34154999999999996        -0.46679219897048996
  0.34239999999999998        -0.51147245581405487
  0.34325000000000000        -0.54891407866082309
  0.34409999999999996        -0.57936674086123763
  0.34494999999999998        -0.60318163566893479
  0.34580000000000000        -0.62072786760686871
  0.34664999999999996        -0.63239654625521791
  0.34749999999999998        -0.63857445343213726
  0.34834999999999999        -0.63965028931236945
  0.34919999999999995        -0.63599972797806281
  0.35004999999999997        -0.62803561201999103
  0.35089999999999999        -0.61619271735322179
  0.35174999999999995        -0.60090405160322780
  0.35259999999999997        -0.58263450122499849
  0.35344999999999999        -0.56182626916242218
  0.35430000000000000        -0.53892114394495572
  0.35514999999999997        -0.51431771939586746
  0.35599999999999998        -0.48837175283167378
  0.35685000000000000        -0.46142988304657095
  0.35769999999999996        -0.43379667276659906
  0.35854999999999998        -0.40576850226953859
  0.35940000000000000        -0.37764394274616508
  0.36024999999999996        -0.34971924520272746
  0.36109999999999998        -0.32219440753301642
  0.36194999999999999        -0.29528656373443229
  0.36279999999999996        -0.26911205307998698
  0.36364999999999997        -0.24378070564251422
  0.36449999999999999        -0.21937005646466298
  0.36534999999999995        -0.19591280033030856