 -0.12000000000000000          0.0000000000000000
 -0.11914999999999999          0.0000000000000000
 -0.11830000000000000          0.0000000000000000
 -0.11745000000000000          0.0000000000000000
 -0.11660000000000000          0.0000000000000000
 -0.11574999999999999          0.0000000000000000
 -0.11490000000000000          0.0000000000000000
 -0.11405000000000000          0.0000000000000000
 -0.11320000000000000          0.0000000000000000
 -0.11234999999999999          0.0000000000000000
 -0.11150000000000000          0.0000000000000000
 -0.11065000000000000          0.0000000000000000
 -0.10979999999999999          2.7953269664035072E-036
 -0.10894999999999999          2.9296557003444413E-035
 -0.10810000000000000          3.3487495244907492E-036
 -0.10725000000000000         -2.1498599780365005E-033
 -0.10639999999999999         -2.3117124164921337E-032
 -0.10554999999999999         -1.4819672477404179E-031
 -0.10470000000000000         -6.9511691084581368E-031
 -0.10385000000000000         -2.5562934650919126E-030
 -0.10299999999999999         -7.5445829794157741E-030
 -0.10214999999999999         -1.7646309230859946E-029
 -0.10130000000000000         -3.0038762607342170E-029
 -0.10045000000000000         -2.2073671982300957E-029
  -9.9599999999999994E-002     7.9295550206852809E-029
  -9.8750000000000004E-002     4.3705893282371166E-028
  -9.7900000000000001E-002     1.3085956561103339E-027
  -9.7049999999999997E-002     2.8998477090912342E-027
  -9.6199999999999994E-002     4.8718961493853884E-027
  -9.5349999999999990E-002     5.3013116482384824E-027
  -9.4500000000000001E-002    -8.3643817496227323E-028
  -9.3649999999999997E-002    -2.2809678685186135E-026
  -9.2799999999999994E-002    -7.2637588514222370E-026
  -9.1950000000000004E-002    -1.5704557819226610E-025
  -9.1100000000000000E-002    -2.5841886465996431E-025
  -9.0249999999999997E-002    -3.0347697981383735E-025
  -8.9399999999999993E-002    -1.2850245812380396E-025
  -8.8549999999999990E-002     5.3122080746407689E-025
  -8.7700000000000000E-002     1.9761108065759347E-024
  -8.6849999999999997E-002     4.3338138183463654E-024
  -8.5999999999999993E-002     7.1588041393131959E-024
  -8.5150000000000003E-002     8.8778362043376843E-024
  -8.4300000000000000E-002     6.2982201904268543E-024
  -8.3449999999999996E-002    -5.3477034152330141E-024
  -8.2600000000000007E-002    -3.1108228532346903E-023
  -8.1749999999999989E-002    -7.3027509324367792E-023
  -8.0900000000000000E-002    -1.2459666750426591E-022
  -8.0049999999999996E-002    -1.6389163135910187E-022
  -7.9199999999999993E-002    -1.4837850035842674E-022
  -7.8350000000000003E-002    -1.6772239922086304E-023
  -7.7499999999999999E-002     2.9502148404713380E-022
  -7.6649999999999996E-002     8.1780539823338513E-022
  -7.5800000000000006E-002     1.4924255589743028E-021
  -7.4949999999999989E-002     2.1038936636947106E-021
  -7.4099999999999999E-002     2.2346284614199065E-021
  -7.3249999999999996E-002     1.2826560026969731E-021
  -7.2399999999999992E-002    -1.4006547859073532E-021
  -7.1550000000000002E-002    -6.2116037889894672E-021
  -7.0699999999999999E-002    -1.2839068188550961E-020
  -6.9849999999999995E-002    -1.9744329296326852E-020
  -6.9000000000000006E-002    -2.3780764960151144E-020
  -6.8149999999999988E-002    -2.0265831089098733E-020
  -6.7299999999999999E-002    -3.8603303501133216E-021
  -6.6449999999999995E-002     2.9485164754958711E-020
  -6.5599999999999992E-002     7.9551307973235062E-020
  -6.4750000000000002E-002     1.3838022187658433E-019
  -6.3899999999999998E-002     1.8750055117075112E-019
  -6.3049999999999995E-002     1.9761978806397569E-019
  -6.2199999999999998E-002     1.3278287242666048E-019
  -6.1350000000000002E-002    -3.9490884851358745E-020
  -6.0499999999999998E-002    -3.3205811807234696E-019
  -5.9650000000000002E-002    -7.1845707805293233E-019
  -5.8799999999999998E-002    -1.1152880081978399E-018
  -5.7950000000000002E-002    -1.3751955196463901E-018
  -5.7099999999999998E-002    -1.3003097407045969E-018
  -5.6249999999999994E-002    -6.8423829614195105E-019
  -5.5400000000000005E-002     6.1533136879810759E-019
  -5.4550000000000001E-002     2.5818408471242054E-018
  -5.3699999999999998E-002     4.9447786054623812E-018
  -5.2849999999999994E-002     7.1192604443050908E-018
  -5.2000000000000005E-002     8.2227506412023004E-018
  -5.1150000000000001E-002     7.2075496135182530E-018
  -5.0299999999999997E-002     3.1277696620845781E-018
  -4.9449999999999994E-002    -4.4777425658381953E-018
  -4.8600000000000004E-002    -1.5155399058549741E-017
  -4.7750000000000001E-002    -2.7180943934740650E-017
  -4.6899999999999997E-002    -3.7436005476662684E-017
  -4.6049999999999994E-002    -4.1677448853125133E-017
  -4.5200000000000004E-002    -3.5309281409702241E-017
  -4.4350000000000001E-002    -1.4655764340180033E-017
  -4.3499999999999997E-002     2.1427800004926913E-017
  -4.2649999999999993E-002     6.9953927312413872E-017
  -4.1800000000000004E-002     1.2271430035824241E-016
  -4.0950000000000000E-002     1.6627212675034837E-016
  -4.0099999999999997E-002     1.8352090162225445E-016
  -3.9249999999999993E-002     1.5702884181737001E-016
  -3.8400000000000004E-002     7.3944096337372386E-017
  -3.7550000000000000E-002    -6.8319004494140184E-017
  -3.6699999999999997E-002    -2.5693653050392812E-016
  -3.5850000000000007E-002    -4.6076558594113384E-016
  -3.5000000000000003E-002    -6.3137663556709439E-016
  -3.4150000000000000E-002    -7.0926794866936447E-016
  -3.3299999999999996E-002    -6.3551519019433904E-016
  -3.2450000000000007E-002    -3.6769650135943131E-016
  -3.1600000000000003E-002     1.0264941408446301E-016
  -3.0750000000000000E-002     7.3514590414831488E-016
  -2.9899999999999996E-002     1.4331123949752251E-015
  -2.9050000000000006E-002     2.0479907003360088E-015
  -2.8200000000000003E-002     2.3985010104305524E-015
  -2.7349999999999999E-002     2.3044589005472156E-015
  -2.6499999999999996E-002     1.6314051126100452E-015
  -2.5650000000000006E-002     3.3829497396440733E-016
  -2.4800000000000003E-002    -1.4825966485071384E-015
  -2.3949999999999999E-002    -3.5856223079675674E-015
  -2.3099999999999996E-002    -5.5822045294518598E-015
  -2.2250000000000006E-002    -6.9879698446536765E-015
  -2.1400000000000002E-002    -7.3056435707514416E-015
  -2.0549999999999999E-002    -6.1340537019437632E-015
  -1.9699999999999995E-002    -3.2849424376032288E-015
  -1.8850000000000006E-002     1.1170940079558313E-015
  -1.8000000000000002E-002     6.5783743478569273E-015
  -1.7149999999999999E-002     1.2246871390886370E-014
  -1.6299999999999995E-002     1.7003476978721584E-014
  -1.5450000000000005E-002     1.9632421205139054E-014
  -1.4600000000000002E-002     1.9051750338972444E-014
  -1.3749999999999998E-002     1.4567626556083356E-014
  -1.2899999999999995E-002     6.1037040209855691E-015
  -1.2050000000000005E-002    -5.6474841237096232E-015
  -1.1200000000000002E-002    -1.9197746864072010E-014
  -1.0349999999999998E-002    -3.2390217843265215E-014
  -9.5000000000000084E-003    -4.2682576854894177E-014
  -8.6500000000000049E-003    -4.7557423218671402E-014
  -7.8000000000000014E-003    -4.5000334032731512E-014
  -6.9499999999999978E-003    -3.3963524089875369E-014
  -6.1000000000000082E-003    -1.4723752138256197E-014
  -5.2500000000000047E-003     1.0948587361363783E-014
  -4.4000000000000011E-003     3.9866663829201409E-014
  -3.5499999999999976E-003     6.7768012994527371E-014
  -2.7000000000000079E-003     8.9888534555247619E-014
  -1.8500000000000044E-003     1.0169274189111913E-013
  -1.0000000000000009E-003     9.9647718356340617E-014
  -1.4999999999999736E-004     8.1911143536722523E-014
   6.9999999999999230E-004     4.8810135242627024E-014
   1.5499999999999958E-003     3.0175501436742600E-015
   2.3999999999999994E-003    -5.0619370934107682E-014
   3.2500000000000029E-003    -1.0558568263781209E-013
   4.0999999999999925E-003    -1.5447213039691389E-013
   4.9499999999999961E-003    -1.8990431216983490E-013
   5.7999999999999996E-003    -2.0549529315801252E-013
   6.6499999999999893E-003    -1.9669281553508970E-013
   7.5000000000000067E-003    -1.6141974780209487E-013
   8.3499999999999963E-003    -1.0044691756137414E-013
   9.1999999999999860E-003    -1.7484784392145951E-014
   1.0050000000000003E-002     8.0982394808800959E-014
   1.0899999999999993E-002     1.8607572646736212E-013
   1.1750000000000010E-002     2.8706994073671924E-013
   1.2600000000000000E-002     3.7208571262935040E-013
   1.3449999999999990E-002     4.2892817073522375E-013
   1.4300000000000007E-002     4.4609474572207975E-013
   1.5149999999999997E-002     4.1397742128627848E-013
   1.5999999999999986E-002     3.2625228208435034E-013
   1.6850000000000004E-002     1.8138713708324055E-013
   1.7699999999999994E-002    -1.5893139196758550E-014
   1.8549999999999983E-002    -2.5343754016217682E-013
   1.9400000000000001E-002    -5.1112295229504980E-013
   2.0249999999999990E-002    -7.6127820226249259E-013
   2.1100000000000008E-002    -9.7036845842273523E-013
   2.1949999999999997E-002    -1.1020860454742418E-012
   2.2799999999999987E-002    -1.1217666201385879E-012
   2.3650000000000004E-002    -1.0017722309892139E-012
   2.4499999999999994E-002    -7.2719891493228294E-013
   2.5349999999999984E-002    -3.0103608934786702E-013
   2.6200000000000001E-002     2.5220979955677072E-013
   2.7049999999999991E-002     8.8537132431194754E-013
   2.7900000000000008E-002     1.5306720654538137E-012
   2.8749999999999998E-002     2.1052890696220385E-012
   2.9599999999999987E-002     2.5202144770089139E-012
   3.0450000000000005E-002     2.6916249980475466E-012
   3.1299999999999994E-002     2.5534397880975168E-012
   3.2149999999999984E-002     2.0693648840386583E-012
   3.3000000000000002E-002     1.2425650947835390E-012
   3.3849999999999991E-002     1.2123556263443922E-013
   3.4700000000000009E-002    -1.2012413236183727E-012
   3.5549999999999998E-002    -2.5922122918385325E-012
   3.6399999999999988E-002    -3.8915866042317636E-012
   3.7250000000000005E-002    -4.9285888209258025E-012
   3.8099999999999995E-002    -5.5416738060277963E-012
   3.8949999999999985E-002    -5.5992982075053295E-012
   3.9800000000000002E-002    -5.0190140325437332E-012
   4.0649999999999992E-002    -3.7824081331194962E-012
   4.1500000000000009E-002    -1.9438575454430608E-012
   4.2349999999999999E-002     3.6829217232866563E-013
   4.3199999999999988E-002     2.9586591663559418E-012
   4.4050000000000006E-002     5.5795287987550296E-012
   4.4899999999999995E-002     7.9521660800703035E-012
   4.5749999999999985E-002     9.7929069797768158E-012
   4.6600000000000003E-002     1.0841720874960257E-011
   4.7449999999999992E-002     1.0890719089613551E-011
   4.8299999999999982E-002     9.8100279779274928E-012
   4.9149999999999999E-002     7.5686121200654626E-012
   4.9999999999999989E-002     4.2479003570885714E-012
   5.0850000000000006E-002     4.6467839086776436E-014
   5.1699999999999996E-002    -4.7254975228516049E-012
   5.2549999999999986E-002    -9.6626159342997161E-012
   5.3400000000000003E-002    -1.4291563270539044E-011
   5.4249999999999993E-002    -1.8108237073797600E-011
   5.5099999999999982E-002    -2.0622918870118757E-011
   5.5950000000000000E-002    -2.1410401629158555E-011
   5.6799999999999989E-002    -2.0161015860168823E-011
   5.7650000000000007E-002    -1.6727548231125372E-011
   5.8499999999999996E-002    -1.1162538111642666E-011
   5.9349999999999986E-002    -3.7404253752415099E-012
   6.0200000000000004E-002     5.0402535078741444E-012
   6.1049999999999993E-002     1.4478001141237695E-011
   6.1899999999999983E-002     2.3713951844474417E-011
   6.2750000000000000E-002     3.1800396476066332E-011
   6.3599999999999990E-002     3.7787715797334416E-011
   6.4450000000000007E-002     4.0822400895570093E-011
   6.5299999999999997E-002     4.0246540712699962E-011
   6.6149999999999987E-002     3.5687961119073231E-011
   6.7000000000000004E-002     2.7129973106868703E-011
   6.7849999999999994E-002     1.4951111191523970E-011
   6.8699999999999983E-002    -7.2322719471343896E-014
   6.9550000000000001E-002    -1.6804407255057187E-011
   7.0399999999999990E-002    -3.3827739697422148E-011
   7.1249999999999980E-002    -4.9556555642781933E-011
   7.2099999999999997E-002    -6.2375646737218532E-011
   7.2949999999999987E-002    -7.0792989174314351E-011
   7.3800000000000004E-002    -7.3591772055652224E-011
   7.4649999999999994E-002    -6.9967192492118400E-011
   7.5499999999999984E-002    -5.9634127447422707E-011
   7.6350000000000001E-002    -4.2893963317621277E-011
   7.7199999999999991E-002    -2.0652424096599581E-011
   7.8049999999999981E-002     5.6159912342148462E-012
   7.8899999999999998E-002     3.3956512846455376E-011
   7.9749999999999988E-002     6.2070611346629088E-011
   8.0600000000000005E-002     8.7491312929109874E-011
   8.1449999999999995E-002     1.0778431973470520E-010
   8.2299999999999984E-002     1.2075936992092072E-010
   8.3150000000000002E-002     1.2467448476953168E-010
   8.3999999999999991E-002     1.1841580926825924E-010
   8.4849999999999981E-002     1.0163653891559268E-010
   8.5699999999999998E-002     7.4841254729828030E-011
   8.6549999999999988E-002     3.9405707985735645E-011
   8.7400000000000005E-002    -2.4734319354040615E-012
   8.8249999999999995E-002    -4.7898870854728381E-011
   8.9099999999999985E-002    -9.3457521055206567E-011
   8.9950000000000002E-002    -1.3545918929110368E-010
   9.0799999999999992E-002    -1.7021350914118676E-010
   9.1649999999999981E-002    -1.9432596765552752E-010
   9.2499999999999999E-002    -2.0499097266109500E-010
   9.3349999999999989E-002    -2.0025897042494168E-010
   9.4200000000000006E-002    -1.7925479175751966E-010
   9.5049999999999996E-002    -1.4232668614281074E-010
   9.5899999999999985E-002    -9.1109032379506477E-011
   9.6750000000000003E-002    -2.8487469847070541E-011
   9.7599999999999992E-002     4.1538149183897466E-011
   9.8449999999999982E-002     1.1408955216499176E-010
   9.9299999999999999E-002     1.8373262646153835E-010
  0.10014999999999999          2.4486669094807445E-010
  0.10099999999999998          2.9215302413039743E-010
  0.10185000000000000          3.2095001316355407E-010
  0.10269999999999999          3.2771971595909504E-010
  0.10355000000000000          3.1037095071009659E-010
  0.10439999999999999          2.6850810076811604E-010
  0.10524999999999998          2.0356093051132808E-010
  0.10610000000000000          1.1878046787873968E-010
  0.10694999999999999          1.9095697783914066E-011
  0.10779999999999998         -8.9162662002433893E-011
  0.10865000000000000         -1.9865499874122878E-010
  0.10949999999999999         -3.0151692248024501E-010
  0.11035000000000000         -3.8990274431529633E-010
  0.11119999999999999         -4.5655133067495112E-010
  0.11204999999999998         -4.9533522359594807E-010
  0.11290000000000000         -5.0175478635522931E-010
  0.11374999999999999         -4.7334083637406781E-010
  0.11459999999999998         -4.0993420556996308E-010
  0.11545000000000000         -3.1381807618054143E-010
  0.11629999999999999         -1.8968621227019814E-010
  0.11715000000000000         -4.4442315529352478E-011
  0.11799999999999999          1.1316444806310492E-010
  0.11884999999999998          2.7305035559990977E-010
  0.11970000000000000          4.2442492536039012E-010
  0.12054999999999999          5.5649796261420796E-010
  0.12139999999999998          6.5921924297411760E-010
  0.12225000000000000          7.2400080874755619E-010
  0.12309999999999999          7.4437183160117079E-010
  0.12395000000000000          7.1651822594219974E-010
  0.12479999999999999          6.3966570764914664E-010
  0.12564999999999998          5.1627588399695476E-010
  0.12650000000000000          3.5203398415706485E-010
  0.12734999999999999          1.5562067890228938E-010
  0.12819999999999998         -6.1725620931216005E-011
  0.12905000000000000         -2.8683828958847066E-010
  0.12989999999999999         -5.0541102640848254E-010
  0.13074999999999998         -7.0290114689984140E-010
  0.13159999999999999         -8.6549301582246120E-010
  0.13245000000000001         -9.8105791916950545E-010
  0.13329999999999997         -1.0400428639855462E-009
  0.13414999999999999         -1.0362206088830553E-009
  0.13500000000000001         -9.6723867938470292E-010
  0.13584999999999997         -8.3491751455786363E-010
  0.13669999999999999         -6.4526491915657583E-010
  0.13755000000000001         -4.0819444546324313E-010
  0.13839999999999997         -1.3696255934787763E-010
  0.13924999999999998          1.5264127787855024E-010
  0.14010000000000000          4.4329153421109514E-010
  0.14094999999999996          7.1723943792582640E-010
  0.14179999999999998          9.5745754013055652E-010
  0.14265000000000000          1.1487353553833722E-009
  0.14350000000000002          1.2786481092699717E-009
  0.14434999999999998          1.3383354175097457E-009
  0.14520000000000000          1.3230436791025728E-009
  0.14605000000000001          1.2324046635538461E-009
  0.14689999999999998          1.0704416236527198E-009
  0.14774999999999999          8.4531312764167047E-010
  0.14860000000000001          5.6881852818369788E-010
  0.14944999999999997          2.5570142961996584E-010
  0.15029999999999999         -7.7203103425690398E-011
  0.15115000000000001         -4.1192751356950413E-010
  0.15199999999999997         -7.3038242721611743E-010
  0.15284999999999999         -1.0153625411680024E-009
  0.15370000000000000         -1.2514943412975121E-009
  0.15454999999999997         -1.4260739806983160E-009
  0.15539999999999998         -1.5297493016966651E-009
  0.15625000000000000         -1.5570076399218794E-009
  0.15709999999999996         -1.5064442356273677E-009
  0.15794999999999998         -1.3807938490220861E-009
  0.15880000000000000         -1.1867253944007940E-009
  0.15965000000000001         -9.3441413171552200E-010
  0.16049999999999998         -6.3691582522637330E-010
  0.16134999999999999         -3.0938722358391477E-010
  0.16220000000000001          3.1799956010891083E-011
  0.16304999999999997          3.6999051623865928E-010
  0.16389999999999999          6.8916318769348076E-010
  0.16475000000000001          9.7477365866176560E-010
  0.16559999999999997          1.2144675772582615E-009
  0.16644999999999999          1.3986229408442484E-009
  0.16730000000000000          1.5206898487089152E-009
  0.16814999999999997          1.5773184472670943E-009
  0.16899999999999998          1.5682797401116038E-009
  0.16985000000000000          1.4962032284796931E-009
  0.17069999999999996          1.3661700358702388E-009
  0.17154999999999998          1.1852071184826202E-009
  0.17240000000000000          9.6173585725666583E-010
  0.17325000000000002          7.0502182280069423E-010
  0.17409999999999998          4.2466842484538946E-010
  0.17494999999999999          1.3018345003618943E-010
  0.17580000000000001         -1.6936451796921496E-010
  0.17664999999999997         -4.6559532388846735E-010
  0.17749999999999999         -7.5097765397947256E-010
  0.17835000000000001         -1.0189129979265124E-009
  0.17919999999999997         -1.2637554815944762E-009
  0.18004999999999999         -1.4807819640612217E-009
  0.18090000000000001         -1.6661208166708921E-009
  0.18174999999999997         -1.8166505374015602E-009
  0.18259999999999998         -1.9298726307346878E-009
  0.18345000000000000         -2.0037725925499292E-009
  0.18429999999999996         -2.0366824360738544E-009
  0.18514999999999998         -2.0271669706796216E-009
  0.18600000000000000         -1.9739605998369551E-009
  0.18684999999999996         -1.8759795265929598E-009
  0.18769999999999998         -1.7324348869210647E-009
  0.18855000000000000         -1.5430571269632453E-009
  0.18940000000000001         -1.3084298022198032E-009
  0.19024999999999997         -1.0304049606786180E-009
  0.19109999999999999         -7.1255938781486400E-010
  0.19195000000000001         -3.6063311252986022E-010
  0.19279999999999997          1.7121692143858518E-011
  0.19364999999999999          4.0974339258671752E-010
  0.19450000000000001          8.0356737143710132E-010
  0.19534999999999997          1.1824683977220164E-009
  0.19619999999999999          1.5283421398170603E-009
  0.19705000000000000          1.8217959215195476E-009
  0.19789999999999996          2.0429925870476050E-009
  0.19874999999999998          2.1725708235426777E-009
  0.19960000000000000          2.1925458163369397E-009
  0.20044999999999996          2.0870946807306873E-009
  0.20129999999999998          1.8431226674562805E-009
  0.20215000000000000          1.4505366013074053E-009
  0.20300000000000001          9.0215654727539760E-010
  0.20384999999999998          1.9320663537885640E-010
  0.20469999999999999         -6.7962603433780426E-010
  0.20555000000000001         -1.7195574237553120E-009
  0.20639999999999997         -2.9314881175755589E-009
  0.20724999999999999         -4.3241159553208832E-009
  0.20810000000000001         -5.9123159432136465E-009
  0.20894999999999997         -7.7196962510901899E-009
  0.20979999999999999         -9.7812267110980717E-009
  0.21065000000000000         -1.2145878873329389E-008
  0.21149999999999997         -1.4879211104124915E-008
  0.21234999999999998         -1.8065800231025775E-008
  0.21320000000000000         -2.1811637410310330E-008
  0.21404999999999996         -2.6246458722111525E-008
  0.21489999999999998         -3.1526150792841819E-008
  0.21575000000000000         -3.7835280422413747E-008
  0.21659999999999996         -4.5390041052063060E-008
  0.21744999999999998         -5.4441564051873799E-008
  0.21829999999999999         -6.5279952796443227E-008
  0.21915000000000001         -7.8239075614149441E-008
  0.21999999999999997         -9.3702244319039591E-008
  0.22084999999999999         -1.1210889259983350E-007
  0.22170000000000001         -1.3396229162235281E-007
  0.22254999999999997         -1.5983838215520363E-007
  0.22339999999999999         -1.9039564465242290E-007
  0.22425000000000000         -2.2638617762942228E-007
  0.22509999999999997         -2.6866773119418782E-007
  0.22594999999999998         -3.1821680980941830E-007
  0.22680000000000000         -3.7614280989546942E-007
  0.22764999999999996         -4.4370323129794628E-007
  0.22849999999999998         -5.2231953272237212E-007
  0.22935000000000000         -6.1359398130952883E-007
  0.23019999999999996         -7.1932730327987968E-007
  0.23104999999999998         -8.4153684252392581E-007
  0.23190000000000000         -9.8247563855415654E-007
  0.23275000000000001         -1.1446522877666932E-006
  0.23359999999999997         -1.3308502020105661E-006
  0.23444999999999999         -1.5441493279837922E-006
  0.23530000000000001         -1.7879466943460090E-006
  0.23614999999999997         -2.0659778239772993E-006
  0.23699999999999999         -2.3823409431346135E-006
  0.23785000000000001         -2.7415166686419043E-006
  0.23869999999999997         -3.1483913348556421E-006
  0.23954999999999999         -3.6082773528442952E-006
  0.24040000000000000         -4.1269355236507818E-006
  0.24124999999999996         -4.7105892608558165E-006
  0.24209999999999998         -5.3659449381003115E-006
  0.24295000000000000         -6.1002038408304862E-006
  0.24379999999999996         -6.9210708663398140E-006
  0.24464999999999998         -7.8367620478868030E-006
  0.24550000000000000         -8.8560084905634172E-006
  0.24634999999999996         -9.9880529535900144E-006
  0.24719999999999998         -1.1242641779033571E-005
  0.24804999999999999         -1.2630014545096475E-005
  0.24890000000000001         -1.4160880966281141E-005
  0.24974999999999997         -1.5846398760784338E-005
  0.25059999999999999         -1.7698127808458006E-005
  0.25145000000000001         -1.9727995210454969E-005
  0.25229999999999997         -2.1948230711123770E-005
  0.25314999999999999         -2.4371306516118681E-005
  0.25400000000000000         -2.7009857622110192E-005
  0.25484999999999997         -2.9876584322028165E-005
  0.25569999999999998         -3.2984155747669557E-005
  0.25655000000000000         -3.6345082632290901E-005
  0.25739999999999996         -3.9971583268039858E-005
  0.25824999999999998         -4.3875420631695988E-005
  0.25910000000000000         -4.8067746396183784E-005
  0.25994999999999996         -5.2558917094553985E-005
  0.26079999999999998         -5.7358254785495933E-005
  0.26164999999999999         -6.2473845943426009E-005
  0.26249999999999996         -6.7912279475656928E-005
  0.26334999999999997         -7.3678421317921965E-005
  0.26419999999999999         -7.9775082494172776E-005
  0.26505000000000001         -8.6202768324314868E-005
  0.26589999999999997         -9.2959363199296432E-005
  0.26674999999999999         -1.0003984779305316E-004
  0.26760000000000000         -1.0743590430073949E-004
  0.26844999999999997         -1.1513566583642725E-004
  0.26929999999999998         -1.2312335420056508E-004
  0.27015000000000000         -1.3137898532846503E-004
  0.27099999999999996         -1.3987805187194377E-004
  0.27184999999999998         -1.4859119797571530E-004
  0.27270000000000000         -1.5748401259163040E-004
  0.27354999999999996         -1.6651669504314645E-004
  0.27439999999999998         -1.7564400901830834E-004
  0.27524999999999999         -1.8481483747098362E-004
  0.27609999999999996         -1.9397238058076197E-004
  0.27694999999999997         -2.0305376301253387E-004
  0.27779999999999999         -2.1199032788928249E-004
  0.27865000000000001         -2.2070744113194090E-004
  0.27949999999999997         -2.2912486711902988E-004
  0.28034999999999999         -2.3715675299100541E-004
  0.28120000000000001         -2.4471213384958724E-004
  0.28204999999999997         -2.5169516307309119E-004
  0.28289999999999998         -2.5800577855697280E-004
  0.28375000000000000         -2.6354021283258981E-004
  0.28459999999999996         -2.6819167298402228E-004
  0.28544999999999998         -2.7185119139493878E-004
  0.28630000000000000         -2.7440857241017581E-004
  0.28714999999999996         -2.7575308751648554E-004
  0.28799999999999998         -2.7577500519444651E-004
  0.28885000000000000         -2.7436659122499410E-004
  0.28969999999999996         -2.7142305788669779E-004
  0.29054999999999997         -2.6684421421706349E-004
  0.29139999999999999         -2.6053590172314602E-004
  0.29224999999999995         -2.5241089933689912E-004
  0.29309999999999997         -2.4239101935759379E-004
  0.29394999999999999         -2.3040774474173244E-004
  0.29480000000000001         -2.1640440820721942E-004
  0.29564999999999997         -2.0033682002990578E-004
  0.29649999999999999         -1.8217519649583669E-004
  0.29735000000000000         -1.6190509138788885E-004
  0.29819999999999997         -1.3952847529590662E-004
  0.29904999999999998         -1.1506497048864242E-004
  0.29990000000000000         -8.8552515666676530E-005
  0.30074999999999996         -6.0048128155937670E-005
  0.30159999999999998         -2.9628756987081002E-005
  0.30245000000000000          2.6087374373237316E-006
  0.30329999999999996          3.6547315553168137E-005
  0.30414999999999998          7.2049777823306822E-005
  0.30499999999999999          1.0895907660781739E-004
  0.30584999999999996          1.4709890613357911E-004
  0.30669999999999997          1.8627447240374733E-004
  0.30754999999999999          2.2627344094844462E-004
  0.30840000000000001          2.6686734619763919E-004
  0.30924999999999997          3.0781306986408277E-004
  0.31009999999999999          3.4885451006306265E-004
  0.31095000000000000          3.8972446451368835E-004
  0.31179999999999997          4.3014696071813662E-004
  0.31264999999999998          4.6983943074318092E-004
  0.31350000000000000          5.0851524431748017E-004
  0.31434999999999996          5.4588609754896704E-004
  0.31519999999999998          5.8166516494651975E-004
  0.31605000000000000          6.1556941238601970E-004
  0.31689999999999996          6.4732254085148532E-004
  0.31774999999999998          6.7665789776702608E-004
  0.31859999999999999          7.0332110020784953E-004
  0.31944999999999996          7.2707275408505638E-004
  0.32029999999999997          7.4769115061407198E-004
  0.32114999999999999          7.6497468097844635E-004
  0.32199999999999995          7.7874390427238639E-004
  0.32284999999999997          7.8884409160159916E-004
  0.32369999999999999          7.9514672222764460E-004
  0.32455000000000001          7.9755100101437887E-004
  0.32539999999999997          7.9598572270542668E-004
  0.32624999999999998          7.9040965268843059E-004
  0.32710000000000000          7.8081278653345987E-004
  0.32794999999999996          7.6721638505330145E-004
  0.32879999999999998          7.4967344966202774E-004
  0.32965000000000000          7.2826812792556241E-004
  0.33049999999999996          7.0311503995838082E-004
  0.33134999999999998          6.7435866195973378E-004
  0.33220000000000000          6.4217213467638386E-004
  0.33304999999999996          6.0675544472815019E-004
  0.33389999999999997          5.6833360254854943E-004
  0.33474999999999999          5.2715505994346671E-004
  0.33559999999999995          4.8348847931802458E-004
  0.33644999999999997          4.3762125768691376E-004
  0.33729999999999999          3.8985598773902061E-004
  0.33815000000000001          3.4050809504978125E-004
  0.33899999999999997          2.8990283259012231E-004
  0.33984999999999999          2.3837178352282439E-004
  0.34070000000000000          1.8625028922082727E-004
  0.34154999999999996          1.3387457609909101E-004
  0.34239999999999998          8.1577859125595855E-005
  0.34325000000000000          2.9688520700274657E-005