 -0.12000000000000000         -1.7393868960942245E-006
 -0.11914999999999999         -6.5568421688957057E-007
 -0.11830000000000000          8.3353842930003231E-007
 -0.11745000000000000          1.1341102855968311E-006
 -0.11660000000000000         -8.8731130243128428E-007
 -0.11574999999999999         -4.9544588328024234E-006
 -0.11490000000000000         -9.1678632283117098E-006
 -0.11405000000000000         -1.0790410703673702E-005
 -0.11320000000000000         -7.7733955558537407E-006
 -0.11234999999999999         -3.0615934987942386E-007
 -0.11150000000000000          8.4814504107859427E-006
 -0.11065000000000000          1.3266280033466096E-005
 -0.10979999999999999          8.7104912195864656E-006
 -0.10894999999999999         -7.6759743315520885E-006
 -0.10810000000000000         -3.3243831647504843E-005
 -0.10725000000000000         -5.9752002965660588E-005
 -0.10639999999999999         -7.5451416247804230E-005
 -0.10554999999999999         -6.9403408246541254E-005
 -0.10470000000000000         -3.6674957095614136E-005
 -0.10385000000000000          1.7615174883116167E-005
 -0.10299999999999999          7.7359578914640498E-005
 -0.10214999999999999          1.1869901744319218E-004
 -0.10130000000000000          1.1702214336725849E-004
 -0.10045000000000000          5.5762434339025933E-005
  -9.9599999999999994E-002    -6.5990402162017050E-005
  -9.8750000000000004E-002    -2.3006224026793668E-004
  -9.7900000000000001E-002    -4.0181162727479473E-004
  -9.7049999999999997E-002    -5.3868319886904502E-004
  -9.6199999999999994E-002    -6.0241172194397115E-004
  -9.5349999999999990E-002    -5.7104170297119145E-004
  -9.4500000000000001E-002    -4.4659838712538007E-004
  -9.3649999999999997E-002    -2.5545581484572998E-004
  -9.2799999999999994E-002    -4.0792529881989006E-005
  -9.1950000000000004E-002     1.5071323241497330E-004
  -9.1100000000000000E-002     2.8359234412198681E-004
  -9.0249999999999997E-002     3.4464013114689142E-004
  -8.9399999999999993E-002     3.4631980339995322E-004
  -8.8549999999999990E-002     3.2115350382307811E-004
  -8.7700000000000000E-002     3.0893667844974462E-004
  -8.6849999999999997E-002     3.4156828467953623E-004
  -8.5999999999999993E-002     4.3102462832975152E-004
  -8.5150000000000003E-002     5.6547393025507321E-004
  -8.4300000000000000E-002     7.1530132777355244E-004
  -8.3449999999999996E-002     8.4722423352111232E-004
  -8.2600000000000007E-002     9.4130155495979022E-004
  -8.1749999999999989E-002     1.0039778932553096E-003
  -8.0900000000000000E-002     1.0717843782127902E-003
  -8.0049999999999996E-002     1.2026489324958424E-003
  -7.9199999999999993E-002     1.4577067222249548E-003
  -7.8350000000000003E-002     1.8792377396788895E-003
  -7.7499999999999999E-002     2.4734143267322040E-003
  -7.6649999999999996E-002     3.2056035384681880E-003
  -7.5800000000000006E-002     4.0109371881996182E-003
  -7.4949999999999989E-002     4.8199978424825407E-003
  -7.4099999999999999E-002     5.5897283571794912E-003
  -7.3249999999999996E-002     6.3313123599535916E-003
  -7.2399999999999992E-002     7.1230266858254392E-003
  -7.1550000000000002E-002     8.1019098140088768E-003
  -7.0699999999999999E-002     9.4355719376628330E-003
  -6.9849999999999995E-002     1.1279880887887520E-002
  -6.9000000000000006E-002     1.3739403229343378E-002
  -6.8149999999999988E-002     1.6838253552194715E-002
  -6.7299999999999999E-002     2.0518653666344724E-002
  -6.6449999999999995E-002     2.4665072549781994E-002
  -6.5599999999999992E-002     2.9151641733767109E-002
  -6.4750000000000002E-002     3.3895921645709905E-002
  -6.3899999999999998E-002     3.8907039974113836E-002
  -6.3049999999999995E-002     4.4307355998130446E-002
  -6.2199999999999998E-002     5.0321872112467053E-002
  -6.1350000000000002E-002     5.7238919108866373E-002
  -6.0499999999999998E-002     6.5351027394081634E-002
  -5.9650000000000002E-002     7.4893821190325227E-002
  -5.8799999999999998E-002     8.6001956529963314E-002
  -5.7950000000000002E-002     9.8694655416730448E-002
  -5.7099999999999998E-002    0.11290130572509921
  -5.6249999999999994E-002    0.12850789711299465
  -5.5400000000000005E-002    0.14542366219136288
  -5.4550000000000001E-002    0.16363552832222189
  -5.3699999999999998E-002    0.18324182567498720
  -5.2849999999999994E-002    0.20444376751507939
  -5.2000000000000005E-002    0.22752637915929075
  -5.1150000000000001E-002    0.25278964325067099
  -5.0299999999999997E-002    0.28048200755402308
  -4.9449999999999994E-002    0.31077501902363003
  -4.8600000000000004E-002    0.34372104822525473
  -4.7750000000000001E-002    0.37929074556753412
  -4.6899999999999997E-002    0.41737758345173975
  -4.6049999999999994E-002    0.45789981482408459
  -4.5200000000000004E-002    0.50076603394820451
  -4.4350000000000001E-002    0.54597383914455011
  -4.3499999999999997E-002    0.59352558865296212
  -4.2649999999999993E-002    0.64345971760415122
  -4.1800000000000004E-002    0.69573147647019340
  -4.0950000000000000E-002    0.75023394011439692
  -4.0099999999999997E-002    0.80668317376225340
  -3.9249999999999993E-002    0.86469996512500236
  -3.8400000000000004E-002    0.92377282056087151
  -3.7550000000000000E-002    0.98329703590369777
  -3.6699999999999997E-002     1.0426986876339479
  -3.5850000000000007E-002     1.1014177825627389
  -3.5000000000000003E-002     1.1589022718242643
  -3.4150000000000000E-002     1.2146251608182719
  -3.3299999999999996E-002     1.2679706879600543
  -3.2450000000000007E-002     1.3182650448370086
  -3.1600000000000003E-002     1.3646969386160026
  -3.0750000000000000E-002     1.4061730919636735
  -2.9899999999999996E-002     1.4416021207894592
  -2.9050000000000006E-002     1.4695991765332264
  -2.8200000000000003E-002     1.4888014929951532
  -2.7349999999999999E-002     1.4978979787132927
  -2.6499999999999996E-002     1.4954456118227724
  -2.5650000000000006E-002     1.4802600449887022
  -2.4800000000000003E-002     1.4511265545348788
  -2.3949999999999999E-002     1.4069716018898388
  -2.3099999999999996E-002     1.3465671432397834
  -2.2250000000000006E-002     1.2687925920564738
  -2.1400000000000002E-002     1.1723446231723247
  -2.0549999999999999E-002     1.0559988121961790
  -1.9699999999999995E-002    0.91844730241958450
  -1.8850000000000006E-002    0.75883699604174115
  -1.8000000000000002E-002    0.57608098551400733
  -1.7149999999999999E-002    0.36952105572934790
  -1.6299999999999995E-002    0.13880364268753403
  -1.5450000000000005E-002   -0.11599909409453790
  -1.4600000000000002E-002   -0.39477430885509124
  -1.3749999999999998E-002   -0.69709870170163857
  -1.2899999999999995E-002    -1.0224602671319409
  -1.2050000000000005E-002    -1.3698687596543602
  -1.1200000000000002E-002    -1.7381633604639002
  -1.0349999999999998E-002    -2.1260094527290176
  -9.5000000000000084E-003    -2.5315546989406497
  -8.6500000000000049E-003    -2.9526511152945019
  -7.8000000000000014E-003    -3.3868227019386845
  -6.9499999999999978E-003    -3.8308387132760111
  -6.1000000000000082E-003    -4.2808481347701672
  -5.2500000000000047E-003    -4.7335384869763200
  -4.4000000000000011E-003    -5.1842468057744657
  -3.5499999999999976E-003    -5.6289121331633920
  -2.7000000000000079E-003    -6.0627897851135755
  -1.8500000000000044E-003    -6.4811168663201633
  -1.0000000000000009E-003    -6.8785494558942863
  -1.4999999999999736E-004    -7.2502752086883389
   6.9999999999999230E-004    -7.5909777749583274
   1.5499999999999958E-003    -7.8949506997777767
   2.3999999999999994E-003    -8.1568735763713427
   3.2500000000000029E-003    -8.3718171975472799
   4.0999999999999925E-003    -8.5343625304871384
   4.9499999999999961E-003    -8.6397696448639394
   5.7999999999999996E-003    -8.6830436874963688
   6.6499999999999893E-003    -8.6604296050418501
   7.5000000000000067E-003    -8.5683353895010654
   8.3499999999999963E-003    -8.4032250300749460
   9.1999999999999860E-003    -8.1627030863410752
   1.0050000000000003E-002    -7.8445804415485405
   1.0899999999999993E-002    -7.4474940393639315
   1.1750000000000010E-002    -6.9709343224868414
   1.2600000000000000E-002    -6.4153505313931225
   1.3449999999999990E-002    -5.7822352477443646
   1.4300000000000007E-002    -5.0738775046618132
   1.5149999999999997E-002    -4.2932807876231918
   1.5999999999999986E-002    -3.4448596428478107
   1.6850000000000004E-002    -2.5332755437463437
   1.7699999999999994E-002    -1.5644926782130195
   1.8549999999999983E-002   -0.54462845743662891
   1.9400000000000001E-002    0.51870420135603101
   2.0249999999999990E-002     1.6176274445880496
   2.1100000000000008E-002     2.7432446325286346
   2.1949999999999997E-002     3.8861090247491186
   2.2799999999999987E-002     5.0362026377576203
   2.3650000000000004E-002     6.1827593703422590
   2.4499999999999994E-002     7.3148529234706574
   2.5349999999999984E-002     8.4215688823034718
   2.6200000000000001E-002     9.4918838605887412
   2.7049999999999991E-002     10.515057637424679
   2.7900000000000008E-002     11.480433521088132
   2.8749999999999998E-002     12.378214305941135
   2.9599999999999987E-002     13.198695528440814
   3.0450000000000005E-002     13.932551536135668
   3.1299999999999994E-002     14.571667274788155
   3.2149999999999984E-002     15.107932121912473
   3.3000000000000002E-002     15.535087286102211
   3.3849999999999991E-002     15.846849466055859
   3.4700000000000009E-002     16.038944474465850
   3.5549999999999998E-002     16.108138627724557
   3.6399999999999988E-002     16.052083346990422
   3.7250000000000005E-002     15.870680079774214
   3.8099999999999995E-002     15.564288160423780
   3.8949999999999985E-002     15.135093870545123
   3.9800000000000002E-002     14.586848364861670
   4.0649999999999992E-002     13.923854404610772
   4.1500000000000009E-002     13.151918396214867
   4.2349999999999999E-002     12.277697502025955
   4.3199999999999988E-002     11.309554538308483
   4.4050000000000006E-002     10.256305754050459
   4.4899999999999995E-002     9.1274550924542073
   4.5749999999999985E-002     7.9340632678270051
   4.6600000000000003E-002     6.6875394233279026
   4.7449999999999992E-002     5.3993699057085616
   4.8299999999999982E-002     4.0819230660164356
   4.9149999999999999E-002     2.7475014520146979
   4.9999999999999989E-002     1.4085726810200567
   5.0850000000000006E-002     7.7534832229180339E-002
   5.1699999999999996E-002    -1.2337399343736946
   5.2549999999999986E-002    -2.5130444835843209
   5.3400000000000003E-002    -3.7494214544826558
   5.4249999999999993E-002    -4.9323970512067037
   5.5099999999999982E-002    -6.0520915355994918
   5.5950000000000000E-002    -7.0994851508852950
   5.6799999999999989E-002    -8.0672358360881322
   5.7650000000000007E-002    -8.9484571123006820
   5.8499999999999996E-002    -9.7371744378064733
   5.9349999999999986E-002    -10.429000458368487
   6.0200000000000004E-002    -11.019793881845988
   6.1049999999999993E-002    -11.506818076898792
   6.1899999999999983E-002    -11.889034951582053
   6.2750000000000000E-002    -12.165740957712888
   6.3599999999999990E-002    -12.338588380295262
   6.4450000000000007E-002    -12.408826392157508
   6.5299999999999997E-002    -12.380193125276040
   6.6149999999999987E-002    -12.256507354206262
   6.7000000000000004E-002    -12.042978120350861
   6.7849999999999994E-002    -11.745493186948281
   6.8699999999999983E-002    -11.369802078160648
   6.9550000000000001E-002    -10.922940283426701
   7.0399999999999990E-002    -10.411889446542190
   7.1249999999999980E-002    -9.8441612350035186
   7.2099999999999997E-002    -9.2274335231163995
   7.2949999999999987E-002    -8.5698588215690830
   7.3800000000000004E-002    -7.8796338194644777
   7.4649999999999994E-002    -7.1648054553244540
   7.5499999999999984E-002    -6.4332516542961500
   7.6350000000000001E-002    -5.6925800471536370
   7.7199999999999991E-002    -4.9500780443941172
   7.8049999999999981E-002    -4.2125865264797824
   7.8899999999999998E-002    -3.4865669110411472
   7.9749999999999988E-002    -2.7779759784620541
   8.0600000000000005E-002    -2.0922513947162886
   8.1449999999999995E-002    -1.4343164126292824
   8.2299999999999984E-002   -0.80849952874600195
   8.3150000000000002E-002   -0.21835983230401201
   8.3999999999999991E-002    0.33313128157935212
   8.4849999999999981E-002    0.84353033646999065
   8.5699999999999998E-002     1.3110782684222508
   8.6549999999999988E-002     1.7344438653899696
   8.7400000000000005E-002     2.1130185332755014
   8.8249999999999995E-002     2.4464235790341000
   8.9099999999999985E-002     2.7350065629094069
   8.9950000000000002E-002     2.9795098774102300
   9.0799999999999992E-002     3.1812446737191618
   9.1649999999999981E-002     3.3416601198343234
   9.2499999999999999E-002     3.4628844667482843
   9.3349999999999989E-002     3.5470856955399799
   9.4200000000000006E-002     3.5966823262635068
   9.5049999999999996E-002     3.6142958041905868
   9.5899999999999985E-002     3.6024706003492484
   9.6750000000000003E-002     3.5639237435866415
   9.7599999999999992E-002     3.5014601352558890
   9.8449999999999982E-002     3.4175970909521620
   9.9299999999999999E-002     3.3150632296761948
  0.10014999999999999          3.1965890059618558
  0.10099999999999998          3.0647699533581338
  0.10185000000000000          2.9221113580789355
  0.10269999999999999          2.7710954082304173
  0.10355000000000000          2.6140327663469765
  0.10439999999999999          2.4529334173930177
  0.10524999999999998          2.2898363105167370
  0.10610000000000000          2.1263538316482737
  0.10694999999999999          1.9641218847301669
  0.10779999999999998          1.8044817124335244
  0.10865000000000000          1.6486329879570243
  0.10949999999999999          1.4973938128686199
  0.11035000000000000          1.3514961137179753
  0.11119999999999999          1.2116274822406468
  0.11204999999999998          1.0780599171972640
  0.11290000000000000         0.95121914862171264
  0.11374999999999999         0.83136837835087263
  0.11459999999999998         0.71886424826526985
  0.11545000000000000         0.61391274721544620
  0.11629999999999999         0.51665759896789787
  0.11715000000000000         0.42719780104079219
  0.11799999999999999         0.34542861018841065
  0.11884999999999998         0.27104679043570279
  0.11970000000000000         0.20375582053843921
  0.12054999999999999         0.14303036761518795
  0.12139999999999998          8.8420659194575105E-002
  0.12225000000000000          3.9380010492963469E-002
  0.12309999999999999         -4.3759706834003431E-003
  0.12395000000000000         -4.3105519936979954E-002
  0.12479999999999999         -7.6953303322398303E-002
  0.12564999999999998        -0.10607267139518581
  0.12650000000000000        -0.13061175323493751
  0.12734999999999999        -0.15079992288022365
  0.12819999999999998        -0.16700143908533097
  0.12905000000000000        -0.17964257547838808
  0.12989999999999999        -0.18923128148397270
  0.13074999999999998        -0.19624078295999603
  0.13159999999999999        -0.20110274657036126
  0.13245000000000001        -0.20403678391676180
  0.13329999999999997        -0.20527848657097009
  0.13414999999999999        -0.20489359290500422
  0.13500000000000001        -0.20289430732608674
  0.13584999999999997        -0.19938897181826390
  0.13669999999999999        -0.19451455143922869
  0.13755000000000001        -0.18848855048791385
  0.13839999999999997        -0.18162929156501503
  0.13924999999999998        -0.17421746495327342
  0.14010000000000000        -0.16657215715619672
  0.14094999999999996        -0.15887081050370569
  0.14179999999999998        -0.15121498978919676
  0.14265000000000000        -0.14363767227855251
  0.14350000000000002        -0.13612538361255586
  0.14434999999999998        -0.12863369092548083
  0.14520000000000000        -0.12116430621010862
  0.14605000000000001        -0.11375073796923796
  0.14689999999999998        -0.10652839633586973
  0.14774999999999999         -9.9623490096358638E-002
  0.14860000000000001         -9.3156720378867255E-002
  0.14944999999999997         -8.7209356528981541E-002
  0.15029999999999999         -8.1770475350599781E-002
  0.15115000000000001         -7.6789992361040074E-002
  0.15199999999999997         -7.2104403686579291E-002
  0.15284999999999999         -6.7588608103148193E-002
  0.15370000000000000         -6.3092079455783670E-002
  0.15454999999999997         -5.8568884515563371E-002
  0.15539999999999998         -5.3980327841531207E-002
  0.15625000000000000         -4.9417023229271655E-002
  0.15709999999999996         -4.4946949220226878E-002
  0.15794999999999998         -4.0659644613162231E-002
  0.15880000000000000         -3.6637556524626053E-002
  0.15965000000000001         -3.2896436001174895E-002
  0.16049999999999998         -2.9391760294959334E-002
  0.16134999999999999         -2.6057072030465062E-002
  0.16220000000000001         -2.2808733977973925E-002
  0.16304999999999997         -1.9545570636120432E-002
  0.16389999999999999         -1.6220826128279062E-002
  0.16475000000000001         -1.2837124028141265E-002
  0.16559999999999997         -9.4189085977811945E-003
  0.16644999999999999         -6.0642452386117790E-003
  0.16730000000000000         -2.8740215111029907E-003
  0.16814999999999997          4.2824595326955602E-005
  0.16899999999999998          2.5999916785306165E-003
  0.16985000000000000          4.7304184150723568E-003
  0.17069999999999996          6.4238737678710394E-003
  0.17154999999999998          7.7034681702098781E-003
  0.17240000000000000          8.5743250424054080E-003
  0.17325000000000002          9.0600954444001076E-003
  0.17409999999999998          9.1949497240023277E-003
  0.17494999999999999          8.9793865554452165E-003
  0.17580000000000001          8.4164380125358196E-003
  0.17664999999999997          7.5153708527780048E-003
  0.17749999999999999          6.2600858993022259E-003
  0.17835000000000001          4.6887937290622673E-003
  0.17919999999999997          2.8444456265842239E-003
  0.18004999999999999          7.8268599408490053E-004
  0.18090000000000001         -1.4081300397488065E-003
  0.18174999999999997         -3.6505267163179978E-003
  0.18259999999999998         -5.8779471947063358E-003
  0.18345000000000000         -8.0298200711243235E-003
  0.18429999999999996         -1.0095733920965366E-002
  0.18514999999999998         -1.2065697587336504E-002
  0.18600000000000000         -1.3957841902860851E-002
  0.18684999999999996         -1.5788613783790834E-002
  0.18769999999999998         -1.7557722988793250E-002
  0.18855000000000000         -1.9219746891520000E-002
  0.18940000000000001         -2.0721894867130351E-002
  0.19024999999999997         -2.1963993958432758E-002
  0.19109999999999999         -2.2852430416156314E-002
  0.19195000000000001         -2.3314899079340701E-002
  0.19279999999999997         -2.3311233946987333E-002
  0.19364999999999999         -2.2874246385665625E-002
  0.19450000000000001         -2.2077858280845380E-002
  0.19534999999999997         -2.1047150561552510E-002
  0.19619999999999999         -1.9913407008809433E-002
  0.19705000000000000         -1.8776027876090153E-002
  0.19789999999999996         -1.7707632341083024E-002
  0.19874999999999998         -1.6721843868372714E-002
  0.19960000000000000         -1.5779503799035671E-002
  0.20044999999999996         -1.4812772876619123E-002
  0.20129999999999998         -1.3769022677928714E-002
  0.20215000000000000         -1.2636514734493922E-002
  0.20300000000000001         -1.1446978083978121E-002
  0.20384999999999998         -1.0272264865899782E-002
  0.20469999999999999         -9.2119997621627030E-003
  0.20555000000000001         -8.3543373082048365E-003
  0.20639999999999997         -7.7461360405324357E-003
  0.20724999999999999         -7.3638984467773918E-003
  0.20810000000000001         -7.1367371140208368E-003
  0.20894999999999997         -6.9414517597454562E-003
  0.20979999999999999         -6.6814647468639316E-003
  0.21065000000000000         -6.2759423197246778E-003
  0.21149999999999997         -5.7204760743911108E-003
  0.21234999999999998         -5.0631614072753715E-003
  0.21320000000000000         -4.4090823744218129E-003
  0.21404999999999996         -3.8576125683038036E-003
  0.21489999999999998         -3.4674902383759663E-003
  0.21575000000000000         -3.2395036760116467E-003
  0.21659999999999996         -3.0833564157598786E-003
  0.21744999999999998         -2.8697827267425298E-003
  0.21829999999999999         -2.4469415685402372E-003
  0.21915000000000001         -1.7005448281996528E-003
  0.21999999999999997         -5.8576745747824436E-004
  0.22084999999999999          8.5021455386604164E-004
  0.22170000000000001          2.4951698121836912E-003
  0.22254999999999997          4.1914519412060295E-003
  0.22339999999999999          5.8010992300410250E-003
  0.22425000000000000          7.2311837803005399E-003
  0.22509999999999997          8.4601969496589241E-003
  0.22594999999999998          9.5363017569106544E-003
  0.22680000000000000          1.0535651644022873E-002
  0.22764999999999996          1.1528797111301475E-002
  0.22849999999999998          1.2541865083982568E-002
  0.22935000000000000          1.3536465979180408E-002
  0.23019999999999996          1.4425792860540462E-002
  0.23104999999999998          1.5096963444472880E-002
  0.23190000000000000          1.5454589245488072E-002
  0.23275000000000001          1.5453645832967836E-002
  0.23359999999999997          1.5106102778637331E-002
  0.23444999999999999          1.4498440479296109E-002
  0.23530000000000001          1.3731713630473543E-002
  0.23614999999999997          1.2908751188614141E-002
  0.23699999999999999          1.2083534564504027E-002
  0.23785000000000001          1.1250648022363479E-002
  0.23869999999999997          1.0352865099715489E-002
  0.23954999999999999          9.3053945302763053E-003
  0.24040000000000000          8.0331658826188930E-003
  0.24124999999999996          6.5012982773564416E-003
  0.24209999999999998          4.7360464612729945E-003
  0.24295000000000000          2.8161664056584176E-003
  0.24379999999999996          8.6100533340636293E-004
  0.24464999999999998         -1.0065750899704588E-003
  0.24550000000000000         -2.6964868520031517E-003
  0.24634999999999996         -4.1582030148653061E-003
  0.24719999999999998         -5.3956506398156832E-003
  0.24804999999999999         -6.4436037468795487E-003
  0.24890000000000001         -7.3470078327032649E-003
  0.24974999999999997         -8.1486060993300712E-003
  0.25059999999999999         -8.8646696570513269E-003
  0.25145000000000001         -9.4901779575075930E-003
  0.25229999999999997         -1.0004327886861253E-002
  0.25314999999999999         -1.0392299535405122E-002
  0.25400000000000000         -1.0651792442308412E-002
  0.25484999999999997         -1.0794399583232795E-002
  0.25569999999999998         -1.0855079104244618E-002
  0.25655000000000000         -1.0867451549449932E-002
  0.25739999999999996         -1.0866861273425510E-002
  0.25824999999999998         -1.0871609425601374E-002
  0.25910000000000000         -1.0882842499142823E-002
  0.25994999999999996         -1.0892719982914101E-002
  0.26079999999999998         -1.0892175150789201E-002
  0.26164999999999999         -1.0864295558142108E-002
  0.26249999999999996         -1.0806931071810855E-002
  0.26334999999999997         -1.0724162316399064E-002
  0.26419999999999999         -1.0614245233733974E-002
  0.26505000000000001         -1.0480089718906231E-002
  0.26589999999999997         -1.0316160483512039E-002
  0.26674999999999999         -1.0114954446516602E-002
  0.26760000000000000         -9.8731961503104090E-003
  0.26844999999999997         -9.5892381321879393E-003
  0.26929999999999998         -9.2733172695205618E-003
  0.27015000000000000         -8.9387189124886333E-003
  0.27099999999999996         -8.5914848080212401E-003
  0.27184999999999998         -8.2264246682974447E-003
  0.27270000000000000         -7.8148923091900697E-003
  0.27354999999999996         -7.3116062766942934E-003
  0.27439999999999998         -6.6640999091938588E-003
  0.27524999999999999         -5.8248334011434290E-003
  0.27609999999999996         -4.7759609076465483E-003
  0.27694999999999997         -3.5239902116279698E-003
  0.27779999999999999         -2.1137467697112085E-003
  0.27865000000000001         -6.0382210430615232E-004
  0.27949999999999997          9.4359009384550885E-004
  0.28034999999999999          2.4889445408613820E-003
  0.28120000000000001          4.0183283249707880E-003
  0.28204999999999997          5.5454072992091527E-003
  0.28289999999999998          7.0905618023033197E-003
  0.28375000000000000          8.6665093373409514E-003
  0.28459999999999996          1.0247855001640030E-002
  0.28544999999999998          1.1775569776840394E-002
  0.28630000000000000          1.3166194360634709E-002
  0.28714999999999996          1.4331635995354169E-002
  0.28799999999999998          1.5212469039151062E-002
  0.28885000000000000          1.5800155874195143E-002
  0.28969999999999996          1.6145190561393526E-002
  0.29054999999999997          1.6341632347532876E-002
  0.29139999999999999          1.6494345446173873E-002
  0.29224999999999995          1.6681244113388328E-002
  0.29309999999999997          1.6914502566304720E-002
  0.29394999999999999          1.7131085031786706E-002
  0.29480000000000001          1.7203491008877775E-002
  0.29564999999999997          1.6979685965696413E-002
  0.29649999999999999          1.6329941103570261E-002
  0.29735000000000000          1.5193609401425917E-002
  0.29819999999999997          1.3609225300269893E-002
  0.29904999999999998          1.1703571536130592E-002
  0.29990000000000000          9.6632504863548192E-003
  0.30074999999999996          7.6832481209297941E-003
  0.30159999999999998          5.9120406383953768E-003
  0.30245000000000000          4.4107853125152719E-003
  0.30329999999999996          3.1478422367035349E-003
  0.30414999999999998          2.0137774203372225E-003
  0.30499999999999999          8.6926152443944605E-004
  0.30584999999999996         -4.0797887797207550E-004
  0.30669999999999997         -1.8796959388298524E-003
  0.30754999999999999         -3.5289938738643492E-003
  0.30840000000000001         -5.2655503496510138E-003
  0.30924999999999997         -6.9579987132951712E-003
  0.31009999999999999         -8.4750064153125207E-003
  0.31095000000000000         -9.7175279876982427E-003
  0.31179999999999997         -1.0659161975992809E-002
  0.31264999999999998         -1.1337567604901407E-002
  0.31350000000000000         -1.1841619082208328E-002
  0.31434999999999996         -1.2279058277487436E-002
  0.31519999999999998         -1.2743332201033047E-002
  0.31605000000000000         -1.3289593833528256E-002
  0.31689999999999996         -1.3914327631584081E-002
  0.31774999999999998         -1.4567540349053196E-002
  0.31859999999999999         -1.5164037009814092E-002
  0.31944999999999996         -1.5606607038617876E-002
  0.32029999999999997         -1.5816273157863592E-002
  0.32114999999999999         -1.5749118075070456E-002
  0.32199999999999995         -1.5404434313358700E-002
  0.32284999999999997         -1.4831122412380429E-002
  0.32369999999999999         -1.4111505597506331E-002
  0.32455000000000001         -1.3346244835146565E-002
  0.32539999999999997         -1.2629106211024053E-002
  0.32624999999999998         -1.2027294214745627E-002
  0.32710000000000000         -1.1558776284743730E-002
  0.32794999999999996         -1.1190224963576072E-002
  0.32879999999999998         -1.0833608786046993E-002
  0.32965000000000000         -1.0373712550750066E-002
  0.33049999999999996         -9.6867782739829371E-003
  0.33134999999999998         -8.6801093989143079E-003
  0.33220000000000000         -7.3158769857154839E-003
  0.33304999999999996         -5.6276437104814843E-003
  0.33389999999999997         -3.7148092151832292E-003
  0.33474999999999999         -1.7188968388753738E-003
  0.33559999999999995          2.1179414081195900E-004
  0.33644999999999997          1.9595865275544317E-003
  0.33729999999999999          3.4722376186866752E-003
  0.33815000000000001          4.7690986483609607E-003
  0.33899999999999997          5.9311264537597157E-003
  0.33984999999999999          7.0709672351342776E-003
  0.34070000000000000          8.2899288916029792E-003
  0.34154999999999996          9.6439481708483661E-003
  0.34239999999999998          1.1122931430181199E-002
  0.34325000000000000          1.2650865379516507E-002
  0.34409999999999996          1.4109232290905577E-002
  0.34494999999999998          1.5376032420057913E-002
  0.34580000000000000          1.6359530269592741E-002
  0.34664999999999996          1.7024415218834670E-002
  0.34749999999999998          1.7395874832808137E-002
  0.34834999999999999          1.7542225408852724E-002
  0.34919999999999995          1.7547567251153338E-002
  0.35004999999999997          1.7477059762405094E-002
  0.35089999999999999          1.7358289167606379E-002
  0.35174999999999995          1.7170524124180957E-002
  0.35259999999999997          1.6857523580645174E-002
  0.35344999999999999          1.6351581270737409E-002
  0.35430000000000000          1.5603063056522657E-002
  0.35514999999999997          1.4597066511041422E-002
  0.35599999999999998          1.3358475000782752E-002
  0.35685000000000000          1.1944903946648475E-002
  0.35769999999999996          1.0428314256368958E-002
  0.35854999999999998          8.8695714926999378E-003
  0.35940000000000000          7.3061402282769000E-003
  0.36024999999999996          5.7485862733998487E-003