 -0.12000000000000000          0.0000000000000000
 -0.11914999999999999          0.0000000000000000
 -0.11830000000000000          0.0000000000000000
 -0.11745000000000000          0.0000000000000000
 -0.11660000000000000          0.0000000000000000
 -0.11574999999999999          0.0000000000000000
 -0.11490000000000000          0.0000000000000000
 -0.11405000000000000          0.0000000000000000
 -0.11320000000000000          0.0000000000000000
 -0.11234999999999999          0.0000000000000000
 -0.11150000000000000          0.0000000000000000
 -0.11065000000000000         -5.4803367600663736E-035
 -0.10979999999999999         -8.4804444090252950E-034
 -0.10894999999999999         -6.3273291164104213E-033
 -0.10810000000000000         -2.9114319263667974E-032
 -0.10725000000000000         -8.3841927205328122E-032
 -0.10639999999999999         -9.7762096098426994E-032
 -0.10554999999999999          4.2910252592821347E-031
 -0.10470000000000000          3.1765899978206144E-030
 -0.10385000000000000          1.1776527692900276E-029
 -0.10299999999999999          3.0441256717218123E-029
 -0.10214999999999999          5.5290663332360697E-029
 -0.10130000000000000          5.1581397865180219E-029
 -0.10045000000000000         -8.3123038784934755E-029
  -9.9599999999999994E-002    -5.4426209629228525E-028
  -9.8750000000000004E-002    -1.5603958020061397E-027
  -9.7900000000000001E-002    -3.1253785813178314E-027
  -9.7049999999999997E-002    -4.4160648529891652E-027
  -9.6199999999999994E-002    -2.9767574830754704E-027
  -9.5349999999999990E-002     5.8042927755811004E-027
  -9.4500000000000001E-002     2.7767972106223266E-026
  -9.3649999999999997E-002     6.6003295754495234E-026
  -9.2799999999999994E-002     1.1269105536899087E-025
  -9.1950000000000004E-002     1.3793580710743719E-025
  -9.1100000000000000E-002     8.1203987391298307E-026
  -9.0249999999999997E-002    -1.4347685486708946E-025
  -8.9399999999999993E-002    -6.1408414416934574E-025
  -8.8549999999999990E-002    -1.3286417132951948E-024
  -8.7700000000000000E-002    -2.1013006217336096E-024
  -8.6849999999999997E-002    -2.4635970193394586E-024
  -8.5999999999999993E-002    -1.6444397078978713E-024
  -8.5150000000000003E-002     1.2747645981768425E-024
  -8.4300000000000000E-002     6.9517054273111748E-024
  -8.3449999999999996E-002     1.5126982284208480E-023
  -8.2600000000000007E-002     2.3876704038470406E-023
  -8.1749999999999989E-002     2.9110791694464950E-023
  -8.0900000000000000E-002     2.4779956904682817E-023
  -8.0049999999999996E-002     4.2168298110183771E-024
  -7.9199999999999993E-002    -3.7248576674197243E-023
  -7.8350000000000003E-002    -9.8785641068666507E-023
  -7.7499999999999999E-002    -1.7068100969970088E-022
  -7.6649999999999996E-002    -2.3252427810308508E-022
  -7.5800000000000006E-002    -2.5435499870817090E-022
  -7.4949999999999989E-002    -2.0145121225600705E-022
  -7.4099999999999999E-002    -4.2237527906315439E-023
  -7.3249999999999996E-002     2.4235026505810751E-022
  -7.2399999999999992E-002     6.4999129535704803E-022
  -7.1550000000000002E-002     1.1494421321417419E-021
  -7.0699999999999999E-002     1.6729444088448289E-021
  -6.9849999999999995E-002     2.1053264661741294E-021
  -6.9000000000000006E-002     2.2675842678563327E-021
  -6.8149999999999988E-002     1.8990924900436137E-021
  -6.7299999999999999E-002     6.5472343724879206E-022
  -6.6449999999999995E-002    -1.8526467700177848E-021
  -6.5599999999999992E-002    -5.9261250359026958E-021
  -6.4750000000000002E-002    -1.1548152859738600E-020
  -6.3899999999999998E-002    -1.8046054692967469E-020
  -6.3049999999999995E-002    -2.3742974097263959E-020
  -6.2199999999999998E-002    -2.5762829686196423E-020
  -6.1350000000000002E-002    -2.0223214830529480E-020
  -6.0499999999999998E-002    -3.0460696753647282E-021
  -5.9650000000000002E-002     2.8504644263999724E-020
  -5.8799999999999998E-002     7.3706084617363441E-020
  -5.7950000000000002E-002     1.2618663013681435E-019
  -5.7099999999999998E-002     1.7252720661028087E-019
  -5.6249999999999994E-002     1.9271603325492301E-019
  -5.5400000000000005E-002     1.6338114201827492E-019
  -5.4550000000000001E-002     6.4132152746596493E-020
  -5.3699999999999998E-002    -1.1368960846247351E-019
  -5.2849999999999994E-002    -3.5781988959122448E-019
  -5.2000000000000005E-002    -6.2851241474622919E-019
  -5.1150000000000001E-002    -8.5813023299893050E-019
  -5.0299999999999997E-002    -9.5973859659403439E-019
  -4.9449999999999994E-002    -8.4557920396162534E-019
  -4.8600000000000004E-002    -4.5325291645963240E-019
  -4.7750000000000001E-002     2.2597528765894300E-019
  -4.6899999999999997E-002     1.1250168887261813E-018
  -4.6049999999999994E-002     2.0939642593378127E-018
  -4.5200000000000004E-002     2.9152155149453495E-018
  -4.4350000000000001E-002     3.3426655698678217E-018
  -4.3499999999999997E-002     3.1597975508145095E-018
  -4.2649999999999993E-002     2.2441313117176346E-018
  -4.1800000000000004E-002     6.2022690235896062E-019
  -4.0950000000000000E-002    -1.5173319191686237E-018
  -4.0099999999999997E-002    -3.8244644849419676E-018
  -3.9249999999999993E-002    -5.8744218797564338E-018
  -3.8400000000000004E-002    -7.2594805567013698E-018
  -3.7550000000000000E-002    -7.7021261432149175E-018
  -3.6699999999999997E-002    -7.1412938242942347E-018
  -3.5850000000000007E-002    -5.7592229108720040E-018
  -3.5000000000000003E-002    -3.9257472152344996E-018
  -3.4150000000000000E-002    -2.0586719664088253E-018
  -3.3299999999999996E-002    -4.2746255396805227E-019
  -3.2450000000000007E-002     1.0444616102353794E-018
  -3.1600000000000003E-002     2.9045676225969861E-018
  -3.0750000000000000E-002     6.1473268266258146E-018
  -2.9899999999999996E-002     1.1987367758943427E-017
  -2.9050000000000006E-002     2.1421351743281043E-017
  -2.8200000000000003E-002     3.4634639529719725E-017
  -2.7349999999999999E-002     5.0379973226806521E-017
  -2.6499999999999996E-002     6.5515323883170981E-017
  -2.5650000000000006E-002     7.4915860999678335E-017
  -2.4800000000000003E-002     7.1952119005047572E-017
  -2.3949999999999999E-002     4.9640758711455526E-017
  -2.3099999999999996E-002     2.4281631508768745E-018
  -2.2250000000000006E-002    -7.1621015110513923E-017
  -2.1400000000000002E-002    -1.6865192439017910E-016
  -2.0549999999999999E-002    -2.7743435759498700E-016
  -1.9699999999999995E-002    -3.7898257539252829E-016
  -1.8850000000000006E-002    -4.4790284348269125E-016
  -1.8000000000000002E-002    -4.5573259114392083E-016
  -1.7149999999999999E-002    -3.7613316922690846E-016
  -1.6299999999999995E-002    -1.9131868121368862E-016
  -1.5450000000000005E-002     1.0135738463706291E-016
  -1.4600000000000002E-002     4.8405326556615901E-016
  -1.3749999999999998E-002     9.1579205479375119E-016
  -1.2899999999999995E-002     1.3337302792659300E-015
  -1.2050000000000005E-002     1.6589882376696239E-015
  -1.1200000000000002E-002     1.8068789111572685E-015
  -1.0349999999999998E-002     1.7004704960623622E-015
  -9.5000000000000084E-003     1.2856086889589085E-015
  -8.6500000000000049E-003     5.4499169907151051E-016
  -7.8000000000000014E-003    -4.9123147027506794E-016
  -6.9499999999999978E-003    -1.7405369982045051E-015
  -6.1000000000000082E-003    -3.0702409935222756E-015
  -5.2500000000000047E-003    -4.3073197944369521E-015
  -4.4000000000000011E-003    -5.2552360777271605E-015
  -3.5499999999999976E-003    -5.7161962561400736E-015
  -2.7000000000000079E-003    -5.5165598689441640E-015
  -1.8500000000000044E-003    -4.5327228865658419E-015
  -1.0000000000000009E-003    -2.7147015464757673E-015
  -1.4999999999999736E-004    -1.0479050056140044E-016
   6.9999999999999230E-004     3.1510348682186094E-015
   1.5499999999999958E-003     6.8008892468421733E-015
   2.3999999999999994E-003     1.0495351267822626E-014
   3.2500000000000029E-003     1.3807270040724516E-014
   4.0999999999999925E-003     1.6263062684522886E-014
   4.9499999999999961E-003     1.7384531396267819E-014
   5.7999999999999996E-003     1.6739133556989086E-014
   6.6499999999999893E-003     1.3995397236385180E-014
   7.5000000000000067E-003     8.9790316085021480E-015
   8.3499999999999963E-003     1.7243628596691320E-015
   9.1999999999999860E-003    -7.4847684427857627E-015
   1.0050000000000003E-002    -1.8090514334805121E-014
   1.0899999999999993E-002    -2.9258281011900257E-014
   1.1750000000000010E-002    -3.9900424110410788E-014
   1.2600000000000000E-002    -4.8729781333578782E-014
   1.3449999999999990E-002    -5.4344997717731307E-014
   1.4300000000000007E-002    -5.5347726687606946E-014
   1.5149999999999997E-002    -5.0489410230535171E-014
   1.5999999999999986E-002    -3.8841818099414797E-014
   1.6850000000000004E-002    -1.9981013253006645E-014
   1.7699999999999994E-002     5.8312620482877715E-015
   1.8549999999999983E-002     3.7490988925959161E-014
   1.9400000000000001E-002     7.2947993895444391E-014
   2.0249999999999990E-002     1.0918639363583721E-013
   2.1100000000000008E-002     1.4232019639012379E-013
   2.1949999999999997E-002     1.6782809773047605E-013
   2.2799999999999987E-002     1.8093756296755787E-013
   2.3650000000000004E-002     1.7714676799408507E-013
   2.4499999999999994E-002     1.5284712758661216E-013
   2.5349999999999984E-002     1.0598134529898659E-013
   2.6200000000000001E-002     3.6649618431957531E-014
   2.7049999999999991E-002    -5.2434927402580130E-014
   2.7900000000000008E-002    -1.5573656724572545E-013
   2.8749999999999998E-002    -2.6500533853403351E-013
   2.9599999999999987E-002    -3.6973655038746078E-013
   3.0450000000000005E-002    -4.5796531830455732E-013
   3.1299999999999994E-002    -5.1732878087500918E-013
   3.2149999999999984E-002    -5.3628960756816997E-013
   3.3000000000000002E-002    -5.0539232496347911E-013
   3.3849999999999991E-002    -4.1842818382138436E-013
   3.4700000000000009E-002    -2.7340744311839043E-013
   3.5549999999999998E-002    -7.3275833317916186E-014
   3.6399999999999988E-002     1.7365261745655682E-013
   3.7250000000000005E-002     4.5355516164814591E-013
   3.8099999999999995E-002     7.4726485034344450E-013
   3.8949999999999985E-002     1.0307794431715726E-012
   3.9800000000000002E-002     1.2761925763127990E-012
   4.0649999999999992E-002     1.4531530662606990E-012
   4.1500000000000009E-002     1.5309533374856160E-012
   4.2349999999999999E-002     1.4812900290773625E-012
   4.3199999999999988E-002     1.2816230214696302E-012
   4.4050000000000006E-002     9.1890009778491464E-013
   4.4899999999999995E-002     3.9324449841859891E-013
   4.5749999999999985E-002    -2.7893325463389923E-013
   4.6600000000000003E-002    -1.0629962262842793E-012
   4.7449999999999992E-002    -1.9058635551510449E-012
   4.8299999999999982E-002    -2.7378973872523604E-012
   4.9149999999999999E-002    -3.4770238296132516E-012
   4.9999999999999989E-002    -4.0349160207547028E-012
   5.0850000000000006E-002    -4.3247846567456728E-012
   5.1699999999999996E-002    -4.2701052755204190E-012
   5.2549999999999986E-002    -3.8134960077540052E-012
   5.3400000000000003E-002    -2.9249510906166891E-012
   5.4249999999999993E-002    -1.6086954426812536E-012
   5.5099999999999982E-002     9.1971871705535341E-014
   5.5950000000000000E-002     2.0923772994810969E-012
   5.6799999999999989E-002     4.2671792820809944E-012
   5.7650000000000007E-002     6.4544864935439283E-012
   5.8499999999999996E-002     8.4636894967610996E-012
   5.9349999999999986E-002     1.0087138373714162E-011
   6.0200000000000004E-002     1.1115487834107404E-011
   6.1049999999999993E-002     1.1356097631956929E-011
   6.1899999999999983E-002     1.0653332857941675E-011
   6.2750000000000000E-002     8.9090729468504446E-012
   6.3599999999999990E-002     6.1013184313646132E-012
   6.4450000000000007E-002     2.2985996111730360E-012
   6.5299999999999997E-002    -2.3319856398527714E-012
   6.6149999999999987E-002    -7.5248258969244787E-012
   6.7000000000000004E-002    -1.2924975394497700E-011
   6.7849999999999994E-002    -1.8106597664377993E-011
   6.8699999999999983E-002    -2.2599952804270559E-011
   6.9550000000000001E-002    -2.5925407646489301E-011
   7.0399999999999990E-002    -2.7632340841310204E-011
   7.1249999999999980E-002    -2.7340331253668325E-011
   7.2099999999999997E-002    -2.4779777085460522E-011
   7.2949999999999987E-002    -1.9828815775239769E-011
   7.3800000000000004E-002    -1.2543312032186373E-011
   7.4649999999999994E-002    -3.1766607223510917E-012
   7.5499999999999984E-002     7.8136574070551250E-012
   7.6350000000000001E-002     1.9775408309685746E-011
   7.7199999999999991E-002     3.1888485263603957E-011
   7.8049999999999981E-002     4.3209739033059265E-011
   7.8899999999999998E-002     5.2734413947290252E-011
   7.9749999999999988E-002     5.9471009765938858E-011
   8.0600000000000005E-002     6.2524495253028705E-011
   8.1449999999999995E-002     6.1181383136836708E-011
   8.2299999999999984E-002     5.4989233552100219E-011
   8.3150000000000002E-002     4.3823073456453009E-011
   8.3999999999999991E-002     2.7931679752189799E-011
   8.4849999999999981E-002     7.9580162366766224E-012
   8.5699999999999998E-002    -1.5070100519398981E-011
   8.6549999999999988E-002    -3.9780845937058962E-011
   8.7400000000000005E-002    -6.4530074751733120E-011
   8.8249999999999995E-002    -8.7500766511748157E-011
   8.9099999999999985E-002    -1.0682462283876938E-010
   8.9950000000000002E-002    -1.2071791737496421E-010
   9.0799999999999992E-002    -1.2762198471047631E-010
   9.1649999999999981E-002    -1.2633740219432668E-010
   9.2499999999999999E-002    -1.1614080085360169E-010
   9.3349999999999989E-002    -9.6874062456322124E-011
   9.4200000000000006E-002    -6.8997521836076169E-011
   9.5049999999999996E-002    -3.3601883846637180E-011
   9.5899999999999985E-002     7.6233033591224329E-012
   9.6750000000000003E-002     5.2462993693161800E-011
   9.7599999999999992E-002     9.8287727434040593E-011
   9.8449999999999982E-002     1.4219573947486029E-010
   9.9299999999999999E-002     1.8117871478300861E-010
  0.10014999999999999          2.1230282075067905E-010
  0.10099999999999998          2.3289670131332694E-010
  0.10185000000000000          2.4073753098471380E-010
  0.10269999999999999          2.3422576710696885E-010
  0.10355000000000000          2.1253776071627143E-010
  0.10439999999999999          1.7574441378004712E-010
  0.10524999999999998          1.2488346482253126E-010
  0.10610000000000000          6.1973973396282153E-011
  0.10694999999999999         -1.0035391042348281E-011
  0.10779999999999998         -8.7388121153322440E-011
  0.10865000000000000         -1.6570923038463764E-010
  0.10949999999999999         -2.4025237060946149E-010
  0.11035000000000000         -3.0618885966868572E-010
  0.11119999999999999         -3.5891763545335055E-010
  0.11204999999999998         -3.9437343982129174E-010
  0.11290000000000000         -4.0931029973897706E-010
  0.11374999999999999         -4.0154053932500601E-010
  0.11459999999999998         -3.7011351688137202E-010
  0.11545000000000000         -3.1542309905002638E-010
  0.11629999999999999         -2.3923700828189532E-010
  0.11715000000000000         -1.4464506766232069E-010
  0.11799999999999999         -3.5926449730809959E-011
  0.11884999999999998          8.1660438538793785E-011
  0.11970000000000000          2.0215778840090057E-010
  0.12054999999999999          3.1924519907116321E-010
  0.12139999999999998          4.2661559287629323E-010
  0.12225000000000000          5.1836602991088187E-010
  0.12309999999999999          5.8937402903694956E-010
  0.12395000000000000          6.3562904590455301E-010
  0.12479999999999999          6.5448926187881182E-010
  0.12564999999999998          6.4483911108547260E-010
  0.12650000000000000          6.0713272307135901E-010
  0.12734999999999999          5.4332098073675888E-010
  0.12819999999999998          4.5667090874802684E-010
  0.12905000000000000          3.5149558343048678E-010
  0.12989999999999999          2.3282306340804033E-010
  0.13074999999999998          1.0604171171443299E-010
  0.13159999999999999         -2.3450172793832390E-011
  0.13245000000000001         -1.5056069791825478E-010
  0.13329999999999997         -2.7075762195513133E-010
  0.13414999999999999         -3.8024867840923192E-010
  0.13500000000000001         -4.7606909995946816E-010
  0.13584999999999997         -5.5607476049085645E-010
  0.13669999999999999         -6.1885224160700807E-010
  0.13755000000000001         -6.6355181133019498E-010
  0.13839999999999997         -6.8965850229654849E-010
  0.13924999999999998         -6.9673307978296477E-010
  0.14010000000000000         -6.8413853984264004E-010
  0.14094999999999996         -6.5079173057540424E-010
  0.14179999999999998         -5.9496765177942446E-010
  0.14265000000000000         -5.1419061846737012E-010
  0.14350000000000002         -4.0520305521741767E-010
  0.14434999999999998         -2.6402089594259965E-010
  0.14520000000000000         -8.6077486018350366E-011
  0.14605000000000001          1.3357482356790249E-010
  0.14689999999999998          4.0009164247751830E-010
  0.14774999999999999          7.1871048344864580E-010
  0.14860000000000001          1.0947088293594936E-009
  0.14944999999999997          1.5335303037520084E-009
  0.15029999999999999          2.0410995832226217E-009
  0.15115000000000001          2.6243446610405077E-009
  0.15199999999999997          3.2919072749762256E-009
  0.15284999999999999          4.0550016007925741E-009
  0.15370000000000000          4.9283869990824553E-009
  0.15454999999999997          5.9314186263879199E-009
  0.15539999999999998          7.0891060486522247E-009
  0.15625000000000000          8.4330970329939463E-009
  0.15709999999999996          1.0002470881436034E-008
  0.15794999999999998          1.1844590044192130E-008
  0.15880000000000000          1.4015835593063606E-008
  0.15965000000000001          1.6582390776261155E-008
  0.16049999999999998          1.9621014704179728E-008
  0.16134999999999999          2.3220028699448422E-008
  0.16220000000000001          2.7480611120782423E-008
  0.16304999999999997          3.2518081968587724E-008
  0.16389999999999999          3.8464016331875514E-008
  0.16475000000000001          4.5468159509345040E-008
  0.16559999999999997          5.3701286395219727E-008
  0.16644999999999999          6.3357932295619867E-008
  0.16730000000000000          7.4659969633146277E-008
  0.16814999999999997          8.7859946927394096E-008
  0.16899999999999998          1.0324526783593463E-007
  0.16985000000000000          1.2114231453105500E-007
  0.17069999999999996          1.4192079505642988E-007
  0.17154999999999998          1.6599873817151883E-007
  0.17240000000000000          1.9384786487696565E-007
  0.17325000000000002          2.2599772249834710E-007
  0.17409999999999998          2.6304152552817124E-007
  0.17494999999999999          3.0564066502626809E-007
  0.17580000000000001          3.5452941191994514E-007
  0.17664999999999997          4.1052002605288698E-007
  0.17749999999999999          4.7450915812577999E-007
  0.17835000000000001          5.4748498013771145E-007
  0.17919999999999997          6.3053196912408309E-007
  0.18004999999999999          7.2483565170213872E-007
  0.18090000000000001          8.3169041887377990E-007
  0.18174999999999997          9.5250792190049028E-007
  0.18259999999999998          1.0888222948537574E-006
  0.18345000000000000          1.2422961248367198E-006
  0.18429999999999996          1.4147262526844565E-006
  0.18514999999999998          1.6080480844215467E-006
  0.18600000000000000          1.8243401329777318E-006
  0.18684999999999996          2.0658260044666411E-006
  0.18769999999999998          2.3348778332136275E-006
  0.18855000000000000          2.6340130878273854E-006
  0.18940000000000001          2.9658860060606519E-006
  0.19024999999999997          3.3332869298451342E-006
  0.19109999999999999          3.7391315980617614E-006
  0.19195000000000001          4.1864539415314168E-006
  0.19279999999999997          4.6783866140193004E-006
  0.19364999999999999          5.2181360862621278E-006
  0.19450000000000001          5.8089652864592285E-006
  0.19534999999999997          6.4541769904517656E-006
  0.19619999999999999          7.1570852963613973E-006
  0.19705000000000000          7.9209782252309352E-006
  0.19789999999999996          8.7490733742688178E-006
  0.19874999999999998          9.6444677527050478E-006
  0.19960000000000000          1.0610104844445952E-005
  0.20044999999999996          1.1648729541847449E-005
  0.20129999999999998          1.2762822460398392E-005
  0.20215000000000000          1.3954521786997709E-005
  0.20300000000000001          1.5225562030656985E-005
  0.20384999999999998          1.6577205777925641E-005
  0.20469999999999999          1.8010174844408400E-005
  0.20555000000000001          1.9524552372137347E-005
  0.20639999999999997          2.1119695246540022E-005
  0.20724999999999999          2.2794141546003358E-005
  0.20810000000000001          2.4545534047527483E-005
  0.20894999999999997          2.6370525627844506E-005
  0.20979999999999999          2.8264689880458254E-005
  0.21065000000000000          3.0222435121560883E-005
  0.21149999999999997          3.2236933076309544E-005
  0.21234999999999998          3.4300042469173408E-005
  0.21320000000000000          3.6402234957141933E-005
  0.21404999999999996          3.8532528914924536E-005
  0.21489999999999998          4.0678460317115614E-005
  0.21575000000000000          4.2826042950775843E-005
  0.21659999999999996          4.4959729421452846E-005
  0.21744999999999998          4.7062430697153781E-005
  0.21829999999999999          4.9115532295474300E-005
  0.21915000000000001          5.1098937016426809E-005
  0.21999999999999997          5.2991098325463990E-005
  0.22084999999999999          5.4769118302994120E-005
  0.22170000000000001          5.6408835733318649E-005
  0.22254999999999997          5.7884966812605807E-005
  0.22339999999999999          5.9171266094483517E-005
  0.22425000000000000          6.0240716186301513E-005
  0.22509999999999997          6.1065652797618098E-005
  0.22594999999999998          6.1618000470229194E-005
  0.22680000000000000          6.1869600494892865E-005
  0.22764999999999996          6.1792532528885579E-005
  0.22849999999999998          6.1359384100017342E-005
  0.22935000000000000          6.0543546605620039E-005
  0.23019999999999996          5.9319544989513661E-005
  0.23104999999999998          5.7663387449712254E-005
  0.23190000000000000          5.5552924331604285E-005
  0.23275000000000001          5.2968230549672776E-005
  0.23359999999999997          4.9891976431919281E-005
  0.23444999999999999          4.6309808602818350E-005
  0.23530000000000001          4.2210666545640972E-005
  0.23614999999999997          3.7587127500458933E-005
  0.23699999999999999          3.2435743493070634E-005
  0.23785000000000001          2.6757424128094463E-005
  0.23869999999999997          2.0557629394161761E-005
  0.23954999999999999          1.3846545519839207E-005
  0.24040000000000000          6.6392928783721438E-006
  0.24124999999999996         -1.0438747769598775E-006
  0.24209999999999998         -9.1775004333804177E-006
  0.24295000000000000         -1.7730914024467754E-005
  0.24379999999999996         -2.6668295202692955E-005
  0.24464999999999998         -3.5948687452423677E-005
  0.24550000000000000         -4.5526083704304234E-005
  0.24634999999999996         -5.5349692419625165E-005
  0.24719999999999998         -6.5364185665187969E-005
  0.24804999999999999         -7.5510068570633872E-005
  0.24890000000000001         -8.5724017114611697E-005
  0.24974999999999997         -9.5939350936960946E-005
  0.25059999999999999         -1.0608651259357787E-004
  0.25145000000000001         -1.1609365772150912E-004
  0.25229999999999997         -1.2588724820412163E-004
  0.25314999999999999         -1.3539275297517157E-004
  0.25400000000000000         -1.4453532109361778E-004
  0.25484999999999997         -1.5324051806238982E-004
  0.25569999999999998         -1.6143486153549479E-004
  0.25655000000000000         -1.6904668631775039E-004
  0.25739999999999996         -1.7600691626352342E-004
  0.25824999999999998         -1.8224984761616969E-004
  0.25910000000000000         -1.8771373864997438E-004
  0.25994999999999996         -1.9234145536976705E-004
  0.26079999999999998         -1.9608124490083629E-004
  0.26164999999999999         -1.9888740268118009E-004
  0.26249999999999996         -2.0072078984182003E-004
  0.26334999999999997         -2.0154919984492802E-004
  0.26419999999999999         -2.0134783370085851E-004
  0.26505000000000001         -2.0009970302812955E-004
  0.26589999999999997         -1.9779602000377997E-004
  0.26674999999999999         -1.9443623632131002E-004
  0.26760000000000000         -1.9002807533360702E-004
  0.26844999999999997         -1.8458760513401793E-004
  0.26929999999999998         -1.7813928663644189E-004
  0.27015000000000000         -1.7071585328190184E-004
  0.27099999999999996         -1.6235792495489693E-004
  0.27184999999999998         -1.5311360002992716E-004
  0.27270000000000000         -1.4303814564709010E-004
  0.27354999999999996         -1.3219358161536333E-004
  0.27439999999999998         -1.2064812299018116E-004
  0.27524999999999999         -1.0847546381219455E-004
  0.27609999999999996         -9.5754025152752580E-005
  0.27694999999999997         -8.2566242483628847E-005
  0.27779999999999999         -6.8997938893708660E-005
  0.27865000000000001         -5.5137437568332612E-005
  0.27949999999999997         -4.1074730981712518E-005
  0.28034999999999999         -2.6900602154410810E-005
  0.28120000000000001         -1.2705859510743873E-005
  0.28204999999999997          1.4194473668476458E-006
  0.28289999999999998          1.5386828411533718E-005
  0.28375000000000000          2.9110152187301333E-005
  0.28459999999999996          4.2506508016406695E-005
  0.28544999999999998          5.5496887757556817E-005
  0.28630000000000000          6.8006776171815838E-005
  0.28714999999999996          7.9966713240989707E-005
  0.28799999999999998          9.1312763937688034E-005
  0.28885000000000000          1.0198700695099604E-004
  0.28969999999999996          1.1193795692492918E-004
  0.29054999999999997          1.2112083676759736E-004
  0.29139999999999999          1.2949778403007739E-004
  0.29224999999999995          1.3703800332665750E-004
  0.29309999999999997          1.4371787415380318E-004
  0.29394999999999999          1.4952103374469853E-004
  0.29480000000000001          1.5443826552863127E-004
  0.29564999999999997          1.5846731581436096E-004
  0.29649999999999999          1.6161268349389716E-004
  0.29735000000000000          1.6388530391855374E-004
  0.29819999999999997          1.6530226160631185E-004
  0.29904999999999998          1.6588641315988897E-004
  0.29990000000000000          1.6566591004663685E-004
  0.30074999999999996          1.6467376210097795E-004
  0.30159999999999998          1.6294738225761443E-004
  0.30245000000000000          1.6052810867677502E-004
  0.30329999999999996          1.5746073081575532E-004
  0.30414999999999998          1.5379286784608239E-004
  0.30499999999999999          1.4957438206277500E-004
  0.30584999999999996          1.4485680921781335E-004
  0.30669999999999997          1.3969290108734861E-004
  0.30754999999999999          1.3413611378510566E-004
  0.30840000000000001          1.2824003556315272E-004
  0.30924999999999997          1.2205790991422498E-004
  0.31009999999999999          1.1564216258134273E-004
  0.31095000000000000          1.0904409360951437E-004
  0.31179999999999997          1.0231343548668024E-004
  0.31264999999999998          9.5498089481437735E-005
  0.31350000000000000          8.8643723895295471E-005
  0.31434999999999996          8.1793557277461151E-005
  0.31519999999999998          7.4988107353095930E-005
  0.31605000000000000          6.8264970752966167E-005
  0.31689999999999996          6.1658764900802268E-005
  0.31774999999999998          5.5201001889462506E-005
  0.31859999999999999          4.8919962344871079E-005
  0.31944999999999996          4.2840613637005151E-005
  0.32029999999999997          3.6984729596127224E-005
  0.32114999999999999          3.1370997190938519E-005
  0.32199999999999995          2.6015009239561916E-005
  0.32284999999999997          2.0929221488215832E-005
  0.32369999999999999          1.6123096025080128E-005
  0.32455000000000001          1.1603412183105536E-005
  0.32539999999999997          7.3744606428299538E-006
  0.32624999999999998          3.4380515081783301E-006
  0.32710000000000000         -2.0642380889544873E-007
  0.32794999999999996         -3.5616861055718108E-006
  0.32879999999999998         -6.6322237274119511E-006
  0.32965000000000000         -9.4241323250458723E-006
  0.33049999999999996         -1.1945078250639151E-005
  0.33134999999999998         -1.4204117579794528E-005
  0.33220000000000000         -1.6211369860476120E-005
  0.33304999999999996         -1.7977764577585696E-005
  0.33389999999999997         -1.9514963317693192E-005
  0.33474999999999999         -2.0835285497363871E-005
  0.33559999999999995         -2.1951488977185416E-005
  0.33644999999999997         -2.2876560623415850E-005
  0.33729999999999999         -2.3623576396198234E-005
  0.33815000000000001         -2.4205650222983051E-005
  0.33899999999999997         -2.4635820159071168E-005
  0.33984999999999999         -2.4926896019662710E-005
  0.34070000000000000         -2.5091330818909492E-005
  0.34154999999999996         -2.5141161901211576E-005
  0.34239999999999998         -2.5088003152756709E-005
  0.34325000000000000         -2.4943027899650304E-005