 -0.12000000000000000          0.0000000000000000
 -0.11914999999999999          1.0139660010762099E-011
 -0.11830000000000000          9.5893069842177422E-011
 -0.11745000000000000          3.9018139257680469E-010
 -0.11660000000000000          9.6252101599241177E-010
 -0.11574999999999999          1.5870461242651479E-009
 -0.11490000000000000          1.6034118010429336E-009
 -0.11405000000000000          9.4087502145415845E-011
 -0.11320000000000000         -3.5417745336081039E-009
 -0.11234999999999999         -8.8079849672232763E-009
 -0.11150000000000000         -1.3569705135811409E-008
 -0.11065000000000000         -1.4263373369780624E-008
 -0.10979999999999999         -7.1434001201144666E-009
 -0.10894999999999999          9.6375776709888381E-009
 -0.10810000000000000          3.3877443509534309E-008
 -0.10725000000000000          5.8214432818363171E-008
 -0.10639999999999999          7.1064206041729568E-008
 -0.10554999999999999          5.9969923793096178E-008
 -0.10470000000000000          1.6719566787551737E-008
 -0.10385000000000000         -5.7421715630560954E-008
 -0.10299999999999999         -1.4855817053674387E-007
 -0.10214999999999999         -2.3101274481729609E-007
 -0.10130000000000000         -2.7296047559967255E-007
 -0.10045000000000000         -2.4591275501627357E-007
  -9.9599999999999994E-002    -1.3542619644874147E-007
  -9.8750000000000004E-002     5.0579823436377901E-008
  -9.7900000000000001E-002     2.7929688719016615E-007
  -9.7049999999999997E-002     4.9817501032001565E-007
  -9.6199999999999994E-002     6.4720640171843530E-007
  -9.5349999999999990E-002     6.7527793951942647E-007
  -9.4500000000000001E-002     5.5579904918149870E-007
  -9.3649999999999997E-002     2.9659608853167241E-007
  -9.2799999999999994E-002    -5.9442078940803679E-008
  -9.1950000000000004E-002    -4.4369006025174283E-007
  -9.1100000000000000E-002    -7.7862462026160210E-007
  -9.0249999999999997E-002    -9.9724259234343637E-007
  -8.9399999999999993E-002    -1.0592473714668013E-006
  -8.8549999999999990E-002    -9.5925011301111101E-007
  -8.7700000000000000E-002    -7.2488737110260922E-007
  -8.6849999999999997E-002    -4.0607946690406311E-007
  -8.5999999999999993E-002    -5.9474833804671835E-008
  -8.5150000000000003E-002     2.6653614211461217E-007
  -8.4300000000000000E-002     5.4145323657780311E-007
  -8.3449999999999996E-002     7.5442380051546219E-007
  -8.2600000000000007E-002     9.0866106827577793E-007
  -8.1749999999999989E-002     1.0117523555162135E-006
  -8.0900000000000000E-002     1.0664217414515734E-006
  -8.0049999999999996E-002     1.0658326565198960E-006
  -7.9199999999999993E-002     9.9544284433147641E-007
  -7.8350000000000003E-002     8.4060160221967369E-007
  -7.7499999999999999E-002     5.9663171027170654E-007
  -7.6649999999999996E-002     2.7698710338676485E-007
  -7.5800000000000006E-002    -8.4299800651169306E-008
  -7.4949999999999989E-002    -4.3754262969541235E-007
  -7.4099999999999999E-002    -7.2853981983486692E-007
  -7.3249999999999996E-002    -9.1231696731425691E-007
  -7.2399999999999992E-002    -9.6477837585192316E-007
  -7.1550000000000002E-002    -8.8820622101124017E-007
  -7.0699999999999999E-002    -7.0867520303099593E-007
  -6.9849999999999995E-002    -4.6633138365633228E-007
  -6.9000000000000006E-002    -2.0200062739344271E-007
  -6.8149999999999988E-002     5.5158967237561068E-008
  -6.7299999999999999E-002     2.9470773328740824E-007
  -6.6449999999999995E-002     5.2442368663142564E-007
  -6.5599999999999992E-002     7.6272817726111067E-007
  -6.4750000000000002E-002     1.0270898840781481E-006
  -6.3899999999999998E-002     1.3229486588146962E-006
  -6.3049999999999995E-002     1.6375181236795874E-006
  -6.2199999999999998E-002     1.9411044967131680E-006
  -6.1350000000000002E-002     2.1960517908953814E-006
  -6.0499999999999998E-002     2.3707462051572807E-006
  -5.9650000000000002E-002     2.4541656248344735E-006
  -5.8799999999999998E-002     2.4661932039296803E-006
  -5.7950000000000002E-002     2.4598579647793668E-006
  -5.7099999999999998E-002     2.5138705010337562E-006
  -5.6249999999999994E-002     2.7167169648098311E-006
  -5.5400000000000005E-002     3.1460306181575718E-006
  -5.4550000000000001E-002     3.8485885127876345E-006
  -5.3699999999999998E-002     4.8263348190370459E-006
  -5.2849999999999994E-002     6.0327037316381656E-006
  -5.2000000000000005E-002     7.3809631760661876E-006
  -5.1150000000000001E-002     8.7636324262422810E-006
  -5.0299999999999997E-002     1.0078727540234801E-005
  -4.9449999999999994E-002     1.1256601267996902E-005
  -4.8600000000000004E-002     1.2280724410773164E-005
  -4.7750000000000001E-002     1.3196424421743099E-005
  -4.6899999999999997E-002     1.4104398190158996E-005
  -4.6049999999999994E-002     1.5139768259931900E-005
  -4.5200000000000004E-002     1.6441366164962677E-005
  -4.4350000000000001E-002     1.8118665074068055E-005
  -4.3499999999999997E-002     2.0225292926783609E-005
  -4.2649999999999993E-002     2.2748100817402610E-005
  -4.1800000000000004E-002     2.5615642078990790E-005
  -4.0950000000000000E-002     2.8724377298850096E-005
  -4.0099999999999997E-002     3.1977585320495443E-005
  -3.9249999999999993E-002     3.5325454933412730E-005
  -3.8400000000000004E-002     3.8794618884957572E-005
  -3.7550000000000000E-002     4.2498104059465931E-005
  -3.6699999999999997E-002     4.6621674552153650E-005
  -3.5850000000000007E-002     5.1389209046100077E-005
  -3.5000000000000003E-002     5.7016696228644084E-005
  -3.4150000000000000E-002     6.3670094560031753E-005
  -3.3299999999999996E-002     7.1440073797792645E-005
  -3.2450000000000007E-002     8.0341828278256659E-005
  -3.1600000000000003E-002     9.0342019285799327E-005
  -3.0750000000000000E-002     1.0140512359052392E-004
  -2.9899999999999996E-002     1.1354504629551920E-004
  -2.9050000000000006E-002     1.2686873846840137E-004
  -2.8200000000000003E-002     1.4159800028450175E-004
  -2.7349999999999999E-002     1.5806026276291469E-004
  -2.6499999999999996E-002     1.7665586979150646E-004
  -2.5650000000000006E-002     1.9781392390271993E-004
  -2.4800000000000003E-002     2.2194853657726751E-004
  -2.3949999999999999E-002     2.4943207128016228E-004
  -2.3099999999999996E-002     2.8059230606220008E-004
  -2.2250000000000006E-002     3.1573715780991229E-004
  -2.1400000000000002E-002     3.5519629840624091E-004
  -2.0549999999999999E-002     3.9936703516293471E-004
  -1.9699999999999995E-002     4.4875050961483063E-004
  -1.8850000000000006E-002     5.0396605508690260E-004
  -1.8000000000000002E-002     5.6574233489762660E-004
  -1.7149999999999999E-002     6.3488528823682229E-004
  -1.6299999999999995E-002     7.1223756777359236E-004
  -1.5450000000000005E-002     7.9864456523382951E-004
  -1.4600000000000002E-002     8.9492382884238887E-004
  -1.3749999999999998E-002     1.0018551308868980E-003
  -1.2899999999999995E-002     1.1201930634381339E-003
  -1.2050000000000005E-002     1.2506832769931754E-003
  -1.1200000000000002E-002     1.3940849772407702E-003
  -1.0349999999999998E-002     1.5511902510415550E-003
  -9.5000000000000084E-003     1.7228170770579065E-003
  -8.6500000000000049E-003     1.9097925335517588E-003
  -7.8000000000000014E-003     2.1129369040883538E-003
  -6.9499999999999978E-003     2.3330140311052885E-003
  -6.1000000000000082E-003     2.5707028822629717E-003
  -5.2500000000000047E-003     2.8265612371369655E-003
  -4.4000000000000011E-003     3.1010030490625788E-003
  -3.5499999999999976E-003     3.3942859058018865E-003
  -2.7000000000000079E-003     3.7064913315712749E-003
  -1.8500000000000044E-003     4.0374953424405918E-003
  -1.0000000000000009E-003     4.3869352317863668E-003
  -1.4999999999999736E-004     4.7541934287560934E-003
   6.9999999999999230E-004     5.1383665259401613E-003
   1.5499999999999958E-003     5.5382174018083772E-003
   2.3999999999999994E-003     5.9521614526416499E-003
   3.2500000000000029E-003     6.3782619453227407E-003
   4.0999999999999925E-003     6.8142182925202991E-003
   4.9499999999999961E-003     7.2573493845307577E-003
   5.7999999999999996E-003     7.7045523784486014E-003
   6.6499999999999893E-003     8.1522908307264871E-003
   7.5000000000000067E-003     8.5965925697883052E-003
   8.3499999999999963E-003     9.0330083140056465E-003
   9.1999999999999860E-003     9.4566110798676908E-003
   1.0050000000000003E-002     9.8619883015726214E-003
   1.0899999999999993E-002     1.0243281671183053E-002
   1.1750000000000010E-002     1.0594248066106678E-002
   1.2600000000000000E-002     1.0908323631395326E-002
   1.3449999999999990E-002     1.1178648901969261E-002
   1.4300000000000007E-002     1.1398099767414594E-002
   1.5149999999999997E-002     1.1559354354661048E-002
   1.5999999999999986E-002     1.1654932155024215E-002
   1.6850000000000004E-002     1.1677228482831254E-002
   1.7699999999999994E-002     1.1618585729609616E-002
   1.8549999999999983E-002     1.1471399072332522E-002
   1.9400000000000001E-002     1.1228231675699092E-002
   2.0249999999999990E-002     1.0881937089455384E-002
   2.1100000000000008E-002     1.0425824509215061E-002
   2.1949999999999997E-002     9.8537355236109781E-003
   2.2799999999999987E-002     9.1601931101280946E-003
   2.3650000000000004E-002     8.3405370277152314E-003
   2.4499999999999994E-002     7.3909271120745973E-003
   2.5349999999999984E-002     6.3085115274855537E-003
   2.6200000000000001E-002     5.0915170148637468E-003
   2.7049999999999991E-002     3.7393770094528963E-003
   2.7900000000000008E-002     2.2528564485842801E-003
   2.8749999999999998E-002     6.3406010211803016E-004
   2.9599999999999987E-002    -1.1134596579127686E-003
   3.0450000000000005E-002    -2.9845938787500951E-003
   3.1299999999999994E-002    -4.9726224423640780E-003
   3.2149999999999984E-002    -7.0691665386391853E-003
   3.3000000000000002E-002    -9.2642364593601631E-003
   3.3849999999999991E-002    -1.1546230873608567E-002
   3.4700000000000009E-002    -1.3901912921555253E-002
   3.5549999999999998E-002    -1.6316425749499441E-002
   3.6399999999999988E-002    -1.8773433476614448E-002
   3.7250000000000005E-002    -2.1255286429153804E-002
   3.8099999999999995E-002    -2.3743006727867142E-002
   3.8949999999999985E-002    -2.6216491249756359E-002
   3.9800000000000002E-002    -2.8654728217883178E-002
   4.0649999999999992E-002    -3.1035907735720306E-002
   4.1500000000000009E-002    -3.3337677993340441E-002
   4.2349999999999999E-002    -3.5537336642884089E-002
   4.3199999999999988E-002    -3.7612052575144959E-002
   4.4050000000000006E-002    -3.9539024435374596E-002
   4.4899999999999995E-002    -4.1295821312557754E-002
   4.5749999999999985E-002    -4.2860667607442789E-002
   4.6600000000000003E-002    -4.4212593554722110E-002
   4.7449999999999992E-002    -4.5331816836138204E-002
   4.8299999999999982E-002    -4.6199986916030361E-002
   4.9149999999999999E-002    -4.6800440980184405E-002
   4.9999999999999989E-002    -4.7118468983321601E-002
   5.0850000000000006E-002    -4.7141528411255795E-002
   5.1699999999999996E-002    -4.6859373997917279E-002
   5.2549999999999986E-002    -4.6264274251935397E-002
   5.3400000000000003E-002    -4.5351080982382420E-002
   5.4249999999999993E-002    -4.4117384882857977E-002
   5.5099999999999982E-002    -4.2563689269471523E-002
   5.5950000000000000E-002    -4.0693514859915486E-002
   5.6799999999999989E-002    -3.8513396518319136E-002
   5.7650000000000007E-002    -3.6032894667728313E-002
   5.8499999999999996E-002    -3.3264589012714729E-002
   5.9349999999999986E-002    -3.0223943360423895E-002
   6.0200000000000004E-002    -2.6929264220239706E-002
   6.1049999999999993E-002    -2.3401440225003213E-002
   6.1899999999999983E-002    -1.9663736879054098E-002
   6.2750000000000000E-002    -1.5741652998990156E-002
   6.3599999999999990E-002    -1.1662767961125933E-002
   6.4450000000000007E-002    -7.4564559278631490E-003
   6.5299999999999997E-002    -3.1534891410449038E-003
   6.6149999999999987E-002     1.2141735097617960E-003
   6.7000000000000004E-002     5.6136934501227424E-003
   6.7849999999999994E-002     1.0011644438441863E-002
   6.8699999999999983E-002     1.4374516771910021E-002
   6.9550000000000001E-002     1.8668935414711367E-002
   7.0399999999999990E-002     2.2862018183690946E-002
   7.1249999999999980E-002     2.6921819208928686E-002
   7.2099999999999997E-002     3.0817499501724167E-002
   7.2949999999999987E-002     3.4519654067090760E-002
   7.3800000000000004E-002     3.8000675934541449E-002
   7.4649999999999994E-002     4.1235025934893019E-002
   7.5499999999999984E-002     4.4199441333259891E-002
   7.6350000000000001E-002     4.6873086418615456E-002
   7.7199999999999991E-002     4.9237794906251915E-002
   7.8049999999999981E-002     5.1278380354864289E-002
   7.8899999999999998E-002     5.2982695403393690E-002
   7.9749999999999988E-002     5.4341681715175526E-002
   8.0600000000000005E-002     5.5349518794249063E-002
   8.1449999999999995E-002     5.6003568747202311E-002
   8.2299999999999984E-002     5.6304317740790699E-002
   8.3150000000000002E-002     5.6255216594445927E-002
   8.3999999999999991E-002     5.5862625388391804E-002
   8.4849999999999981E-002     5.5135694293977251E-002
   8.5699999999999998E-002     5.4086310769698734E-002
   8.6549999999999988E-002     5.2728984338908887E-002
   8.7400000000000005E-002     5.1080584252263660E-002
   8.8249999999999995E-002     4.9160093894705069E-002
   8.9099999999999985E-002     4.6988481795189184E-002
   8.9950000000000002E-002     4.4588414617748706E-002
   9.0799999999999992E-002     4.1983887958833788E-002
   9.1649999999999981E-002     3.9199957093344985E-002
   9.2499999999999999E-002     3.6262466099362553E-002
   9.3349999999999989E-002     3.3197664239515423E-002
   9.4200000000000006E-002     3.0032049328691812E-002
   9.5049999999999996E-002     2.6792148995625029E-002
   9.5899999999999985E-002     2.3504285075250292E-002
   9.6750000000000003E-002     2.0194320444942016E-002
   9.7599999999999992E-002     1.6887329640378639E-002
   9.8449999999999982E-002     1.3607471782185644E-002
   9.9299999999999999E-002     1.0377787159437020E-002
  0.10014999999999999          7.2198374868579071E-003
  0.10099999999999998          4.1536113697547648E-003
  0.10185000000000000          1.1974610035388994E-003
  0.10269999999999999         -1.6320894440870922E-003
  0.10355000000000000         -4.3203781336266806E-003
  0.10439999999999999         -6.8545342969780201E-003
  0.10524999999999998         -9.2236005495838855E-003
  0.10610000000000000         -1.1418509476890812E-002
  0.10694999999999999         -1.3432078036153214E-002
  0.10779999999999998         -1.5259018281339947E-002
  0.10865000000000000         -1.6895937337310516E-002
  0.10949999999999999         -1.8341303141364951E-002
  0.11035000000000000         -1.9595330075070212E-002
  0.11119999999999999         -2.0659864673386947E-002
  0.11204999999999998         -2.1538242642838490E-002
  0.11290000000000000         -2.2235172769918113E-002
  0.11374999999999999         -2.2756573444814097E-002
  0.11459999999999998         -2.3109448660993244E-002
  0.11545000000000000         -2.3301802840548461E-002
  0.11629999999999999         -2.3342448753897918E-002
  0.11715000000000000         -2.3240939288226126E-002
  0.11799999999999999         -2.3007398376956659E-002
  0.11884999999999998         -2.2652378254848959E-002
  0.11970000000000000         -2.2186754213484705E-002
  0.12054999999999999         -2.1621540625884231E-002
  0.12139999999999998         -2.0967770694539759E-002
  0.12225000000000000         -2.0236438860309791E-002
  0.12309999999999999         -1.9438396084521480E-002
  0.12395000000000000         -1.8584252131852986E-002
  0.12479999999999999         -1.7684305555745808E-002
  0.12564999999999998         -1.6748444687256652E-002
  0.12650000000000000         -1.5786110423548994E-002
  0.12734999999999999         -1.4806220308537791E-002
  0.12819999999999998         -1.3817123296388522E-002
  0.12905000000000000         -1.2826552227643531E-002
  0.12989999999999999         -1.1841613437761611E-002
  0.13074999999999998         -1.0868781698545238E-002
  0.13159999999999999         -9.9138957620750444E-003
  0.13245000000000001         -8.9821876726614621E-003
  0.13329999999999997         -8.0782984552892692E-003
  0.13414999999999999         -7.2062616715995436E-003
  0.13500000000000001         -6.3695397558417603E-003
  0.13584999999999997         -5.5710135708378584E-003
  0.13669999999999999         -4.8129974102902083E-003
  0.13755000000000001         -4.0972672003000143E-003
  0.13839999999999997         -3.4251059432218586E-003
  0.13924999999999998         -2.7973346308611401E-003
  0.14010000000000000         -2.2143642764771523E-003
  0.14094999999999996         -1.6762293333639692E-003
  0.14179999999999998         -1.1826289849559950E-003
  0.14265000000000000         -7.3292823115591427E-004
  0.14350000000000002         -3.2617551067122449E-004
  0.14434999999999998          3.8859753254000619E-005
  0.14520000000000000          3.6367481351816150E-004
  0.14605000000000001          6.4998618328285999E-004
  0.14689999999999998          8.9966583775554756E-004
  0.14774999999999999          1.1146844330853654E-003
  0.14860000000000001          1.2970481395766858E-003
  0.14944999999999997          1.4487917152184782E-003
  0.15029999999999999          1.5719848230595871E-003
  0.15115000000000001          1.6687409245947835E-003
  0.15199999999999997          1.7412465233374052E-003
  0.15284999999999999          1.7917589152205834E-003
  0.15370000000000000          1.8225797384539249E-003
  0.15454999999999997          1.8360150160826086E-003
  0.15539999999999998          1.8343180084495257E-003
  0.15625000000000000          1.8196123763556935E-003
  0.15709999999999996          1.7938359271569072E-003
  0.15794999999999998          1.7587269795849823E-003
  0.15880000000000000          1.7158394036375668E-003
  0.15965000000000001          1.6665692237556734E-003
  0.16049999999999998          1.6122242303748019E-003
  0.16134999999999999          1.5540684816671842E-003
  0.16220000000000001          1.4933397223656139E-003
  0.16304999999999997          1.4312319334636189E-003
  0.16389999999999999          1.3688454191297162E-003
  0.16475000000000001          1.3071247055480469E-003
  0.16559999999999997          1.2467913616727238E-003
  0.16644999999999999          1.1883254848465228E-003
  0.16730000000000000          1.1319849312388477E-003
  0.16814999999999997          1.0778513346709037E-003
  0.16899999999999998          1.0259091537728202E-003
  0.16985000000000000          9.7612736461757011E-004
  0.17069999999999996          9.2850457539913028E-004
  0.17154999999999998          8.8308647962104313E-004
  0.17240000000000000          8.3995005405327033E-004
  0.17325000000000002          7.9915311961980759E-004
  0.17409999999999998          7.6068485502226054E-004
  0.17494999999999999          7.2442779688775688E-004
  0.17580000000000001          6.9014588875118156E-004
  0.17664999999999997          6.5752393311813379E-004
  0.17749999999999999          6.2623025403869175E-004
  0.17835000000000001          5.9597591424651096E-004
  0.17919999999999997          5.6656686676521387E-004
  0.18004999999999999          5.3792827623683160E-004
  0.18090000000000001          5.1010187742912708E-004
  0.18174999999999997          4.8320970409575773E-004
  0.18259999999999998          4.5739885486630050E-004
  0.18345000000000000          4.3280141276604868E-004
  0.18429999999999996          4.0950325202924028E-004
  0.18514999999999998          3.8753540855665823E-004
  0.18600000000000000          3.6689009424804950E-004
  0.18684999999999996          3.4754865069056966E-004
  0.18769999999999998          3.2950912602280701E-004
  0.18855000000000000          3.1280042578589879E-004
  0.18940000000000001          2.9748303935316957E-004
  0.19024999999999997          2.8363606098406641E-004
  0.19109999999999999          2.7133373968957257E-004
  0.19195000000000001          2.6062482146500191E-004
  0.19279999999999997          2.5151590469665196E-004
  0.19364999999999999          2.4396858503010531E-004
  0.19450000000000001          2.3790324687623793E-004
  0.19534999999999997          2.3319917174798556E-004
  0.19619999999999999          2.2970440841190971E-004
  0.19705000000000000          2.2724032899231589E-004
  0.19789999999999996          2.2559938475889564E-004
  0.19874999999999998          2.2455301617249279E-004
  0.19960000000000000          2.2385267053742639E-004
  0.20044999999999996          2.2323903388438309E-004
  0.20129999999999998          2.2245469467264175E-004
  0.20215000000000000          2.2125773453244644E-004
  0.20300000000000001          2.1942907500385294E-004
  0.20384999999999998          2.1677469300705052E-004
  0.20469999999999999          2.1312622492200968E-004
  0.20555000000000001          2.0832995169792087E-004
  0.20639999999999997          2.0224519717552427E-004
  0.20724999999999999          1.9475005842762959E-004
  0.20810000000000001          1.8575266133256488E-004
  0.20894999999999997          1.7521212875932875E-004
  0.20979999999999999          1.6316063937435300E-004
  0.21065000000000000          1.4971823548046628E-004
  0.21149999999999997          1.3508969535607125E-004
  0.21234999999999998          1.1954424623800566E-004
  0.21320000000000000          1.0338682916518915E-004
  0.21404999999999996          8.6922332685364221E-005
  0.21489999999999998          7.0425102950514789E-005
  0.21575000000000000          5.4126236298335970E-005
  0.21659999999999996          3.8221275187627093E-005
  0.21744999999999998          2.2889105212896647E-005
  0.21829999999999999          8.3175880149727527E-006
  0.21915000000000001         -5.2761385769537544E-006
  0.21999999999999997         -1.7641999615464851E-005
  0.22084999999999999         -2.8515589996400016E-005
  0.22170000000000001         -3.7652443666099781E-005
  0.22254999999999997         -4.4868190886880838E-005
  0.22339999999999999         -5.0073374919822273E-005
  0.22425000000000000         -5.3284260760832726E-005
  0.22509999999999997         -5.4611973548819072E-005
  0.22594999999999998         -5.4231614165354901E-005
  0.22680000000000000         -5.2339961550120025E-005
  0.22764999999999996         -4.9118799463687552E-005
  0.22849999999999998         -4.4714527218640895E-005
  0.22935000000000000         -3.9240353490201768E-005
  0.23019999999999996         -3.2799070206692431E-005
  0.23104999999999998         -2.5514711509441205E-005
  0.23190000000000000         -1.7563192730201432E-005
  0.23275000000000001         -9.1852481582407413E-006
  0.23359999999999997         -6.7597288430312447E-007
  0.23444999999999999          7.6461735259597952E-006
  0.23530000000000001          1.5483068405396047E-005
  0.23614999999999997          2.2597230814477236E-005
  0.23699999999999999          2.8838927858440983E-005
  0.23785000000000001          3.4152591311039651E-005
  0.23869999999999997          3.8563352560737234E-005
  0.23954999999999999          4.2146099087480801E-005
  0.24040000000000000          4.4992935583559226E-005
  0.24124999999999996          4.7190760027384270E-005
  0.24209999999999998          4.8810250918231913E-005
  0.24295000000000000          4.9912796405016098E-005
  0.24379999999999996          5.0566448229430131E-005
  0.24464999999999998          5.0862702083054646E-005
  0.24550000000000000          5.0927748368773596E-005
  0.24634999999999996          5.0920457846228554E-005
  0.24719999999999998          5.1019639598057081E-005
  0.24804999999999999          5.1403352476526091E-005
  0.24890000000000001          5.2227108160996971E-005
  0.24974999999999997          5.3608500623283177E-005
  0.25059999999999999          5.5620899608562021E-005
  0.25145000000000001          5.8295653183124962E-005
  0.25229999999999997          6.1629321597805490E-005
  0.25314999999999999          6.5590114184570247E-005
  0.25400000000000000          7.0120762370902992E-005
  0.25484999999999997          7.5137128410317097E-005
  0.25569999999999998          8.0524506597906532E-005
  0.25655000000000000          8.6134606488974844E-005
  0.25739999999999996          9.1786798280766405E-005
  0.25824999999999998          9.7276194359754428E-005
  0.25910000000000000          1.0238561970927362E-004
  0.25994999999999996          1.0689951834601828E-004
  0.26079999999999998          1.1061469129403876E-004
  0.26164999999999999          1.1334402051336583E-004
  0.26249999999999996          1.1491428139330760E-004
  0.26334999999999997          1.1516234665347011E-004
  0.26419999999999999          1.1393377250570836E-004
  0.26505000000000001          1.1108596562704895E-004
  0.26589999999999997          1.0650159971678685E-004
  0.26674999999999999          1.0010679636470367E-004
  0.26760000000000000          9.1888947655083527E-005
  0.26844999999999997          8.1910288081754571E-005
  0.26929999999999998          7.0307759547889756E-005
  0.27015000000000000          5.7281745056840465E-005
  0.27099999999999996          4.3073241359143798E-005
  0.27184999999999998          2.7937343085967229E-005
  0.27270000000000000          1.2124217215898964E-005
  0.27354999999999996         -4.1287211818746052E-006
  0.27439999999999998         -2.0592892620699969E-005
  0.27524999999999999         -3.7033521999007193E-005
  0.27609999999999996         -5.3192083719727021E-005
  0.27694999999999997         -6.8775283696957776E-005
  0.27779999999999999         -8.3457161165264887E-005
  0.27865000000000001         -9.6898746023874247E-005
  0.27949999999999997         -1.0877729919638377E-004
  0.28034999999999999         -1.1881947585942374E-004
  0.28120000000000001         -1.2682742843210442E-004
  0.28204999999999997         -1.3268950492187643E-004
  0.28289999999999998         -1.3637407795911318E-004
  0.28375000000000000         -1.3790821393971648E-004
  0.28459999999999996         -1.3735036768753288E-004
  0.28544999999999998         -1.3476782659984789E-004
  0.28630000000000000         -1.3022664067444933E-004
  0.28714999999999996         -1.2379751114746469E-004
  0.28799999999999998         -1.1557533310219720E-004
  0.28885000000000000         -1.0570127496002182E-004
  0.28969999999999996         -9.4381033352476559E-005
  0.29054999999999997         -8.1888807088739563E-005
  0.29139999999999999         -6.8551755273969290E-005
  0.29224999999999995         -5.4722623033332020E-005
  0.29309999999999997         -4.0744119528996755E-005
  0.29394999999999999         -2.6916443595134713E-005
  0.29480000000000001         -1.3477718340170589E-005
  0.29564999999999997         -6.0004304582425787E-007
  0.29649999999999999          1.1598089800890624E-005
  0.29735000000000000          2.3030928138784285E-005
  0.29819999999999997          3.3624045287796606E-005
  0.29904999999999998          4.3300108344490628E-005
  0.29990000000000000          5.1977239153490719E-005
  0.30074999999999996          5.9579308136256867E-005
  0.30159999999999998          6.6052540805311243E-005
  0.30245000000000000          7.1383753360375823E-005
  0.30329999999999996          7.5612028737383384E-005
  0.30414999999999998          7.8828600733399248E-005
  0.30499999999999999          8.1166572193512110E-005
  0.30584999999999996          8.2783942099761101E-005
  0.30669999999999997          8.3843923952697422E-005
  0.30754999999999999          8.4497577145651787E-005
  0.30840000000000001          8.4873819225239402E-005
  0.30924999999999997          8.5076484648146197E-005
  0.31009999999999999          8.5186389211743856E-005
  0.31095000000000000          8.5266524677150285E-005
  0.31179999999999997          8.5365741489675805E-005
  0.31264999999999998          8.5519512289006645E-005
  0.31350000000000000          8.5747562744072848E-005
  0.31434999999999996          8.6049327395065908E-005
  0.31519999999999998          8.6399401564234864E-005
  0.31605000000000000          8.6744402222977237E-005
  0.31689999999999996          8.7002486759242618E-005
  0.31774999999999998          8.7065247378034013E-005
  0.31859999999999999          8.6802615871001726E-005
  0.31944999999999996          8.6068063421419419E-005
  0.32029999999999997          8.4706306411908784E-005
  0.32114999999999999          8.2561442708467986E-005
  0.32199999999999995          7.9485881762669284E-005
  0.32284999999999997          7.5351849510336456E-005
  0.32369999999999999          7.0061273183855249E-005
  0.32455000000000001          6.3554259481929319E-005
  0.32539999999999997          5.5813563561476845E-005
  0.32624999999999998          4.6863542866041313E-005
  0.32710000000000000          3.6764348597280703E-005
  0.32794999999999996          2.5603008241521051E-005
  0.32879999999999998          1.3484123732075167E-005
  0.32965000000000000          5.2417002746284401E-007
  0.33049999999999996         -1.3147914338418551E-005
  0.33134999999999998         -2.7384215762319260E-005
  0.33220000000000000         -4.2007836677150603E-005
  0.33304999999999996         -5.6804354357834031E-005
  0.33389999999999997         -7.1517966687552719E-005
  0.33474999999999999         -8.5856881443451715E-005
  0.33559999999999995         -9.9507944120839309E-005
  0.33644999999999997         -1.1215789819910312E-004
  0.33729999999999999         -1.2351736789827642E-004
  0.33815000000000001         -1.3333934242626197E-004
  0.33899999999999997         -1.4142943900912500E-004
  0.33984999999999999         -1.4764534520820733E-004
  0.34070000000000000         -1.5188620142744314E-004
  0.34154999999999996         -1.5407783235425542E-004
  0.34239999999999998         -1.5416015778703935E-004