 -0.12000000000000000          2.7293265862651794E-003
 -0.11914999999999999          1.5380457283025856E-003
 -0.11830000000000000         -3.1386243069833879E-004
 -0.11745000000000000         -9.2600337211240719E-004
 -0.11660000000000000          1.6134119637087308E-003
 -0.11574999999999999          8.1106426286975900E-003
 -0.11490000000000000          1.7382193316360900E-002
 -0.11405000000000000          2.6109589980660021E-002
 -0.11320000000000000          2.9779472539881866E-002
 -0.11234999999999999          2.4661405932187512E-002
 -0.11150000000000000          1.0241400860011737E-002
 -0.11065000000000000         -8.9333388891087787E-003
 -0.10979999999999999         -2.3167941001518109E-002
 -0.10894999999999999         -2.0056880532857785E-002
 -0.10810000000000000          1.0713740891325291E-002
 -0.10725000000000000          7.1530597529341725E-002
 -0.10639999999999999         0.15226403930079058
 -0.10554999999999999         0.22941717637857972
 -0.10470000000000000         0.27067632696280947
 -0.10385000000000000         0.24474540258261013
 -0.10299999999999999         0.13413226395106775
 -0.10214999999999999         -5.3235964507300171E-002
 -0.10130000000000000        -0.27823937169757063
 -0.10045000000000000        -0.47413111544428643
  -9.9599999999999994E-002   -0.56017708523477239
  -9.8750000000000004E-002   -0.46261160933381928
  -9.7900000000000001E-002   -0.13712567969928235
  -9.7049999999999997E-002    0.41417332442280452
  -9.6199999999999994E-002     1.1372482723759352
  -9.5349999999999990E-002     1.9346109635935798
  -9.4500000000000001E-002     2.6857020538607221
  -9.3649999999999997E-002     3.2730344699727763
  -9.2799999999999994E-002     3.6058123077818145
  -9.1950000000000004E-002     3.6337138539460518
  -9.1100000000000000E-002     3.3471915384525257
  -9.0249999999999997E-002     2.7657931723797251
  -8.9399999999999993E-002     1.9205882509262224
  -8.8549999999999990E-002    0.83908368619170970
  -8.7700000000000000E-002   -0.46047751070262022
  -8.6849999999999997E-002    -1.9629305858499198
  -8.5999999999999993E-002    -3.6414615013413130
  -8.5150000000000003E-002    -5.4427365326250854
  -8.4300000000000000E-002    -7.2821820561015063
  -8.3449999999999996E-002    -9.0565906718777640
  -8.2600000000000007E-002    -10.675186068553622
  -8.1749999999999989E-002    -12.101848561011714
  -8.0900000000000000E-002    -13.395135072876851
  -8.0049999999999996E-002    -14.729789616846769
  -7.9199999999999993E-002    -16.388395789101882
  -7.8350000000000003E-002    -18.719754678776397
  -7.7499999999999999E-002    -22.073176035679708
  -7.6649999999999996E-002    -26.727189912214975
  -7.5800000000000006E-002    -32.835225566866534
  -7.4949999999999989E-002    -40.410076160929066
  -7.4099999999999999E-002    -49.354946896072974
  -7.3249999999999996E-002    -59.537917711861041
  -7.2399999999999992E-002    -70.889507109134783
  -7.1550000000000002E-002    -83.495784389763656
  -7.0699999999999999E-002    -97.659515524025608
  -6.9849999999999995E-002    -113.90864093299510
  -6.9000000000000006E-002    -132.94984489553096
  -6.8149999999999988E-002    -155.58162605629917
  -6.7299999999999999E-002    -182.59388320667776
  -6.6449999999999995E-002    -214.68467307722710
  -6.5599999999999992E-002    -252.42413230287588
  -6.4750000000000002E-002    -296.27765678389767
  -6.3899999999999998E-002    -346.68031905331043
  -6.3049999999999995E-002    -404.14322131282131
  -6.2199999999999998E-002    -469.35715484352102
  -6.1350000000000002E-002    -543.27189080214407
  -6.0499999999999998E-002    -627.11114009221615
  -5.9650000000000002E-002    -722.34895029600250
  -5.8799999999999998E-002    -830.62708904832152
  -5.7950000000000002E-002    -953.65977447598493
  -5.7099999999999998E-002    -1093.1758116566350
  -5.6249999999999994E-002    -1250.8580225510345
  -5.5400000000000005E-002    -1428.3652449434294
  -5.4550000000000001E-002    -1627.3887674485918
  -5.3699999999999998E-002    -1849.7286988280907
  -5.2849999999999994E-002    -2097.3677864377132
  -5.2000000000000005E-002    -2372.5255474193527
  -5.1150000000000001E-002    -2677.6571497955169
  -5.0299999999999997E-002    -3015.4254294521115
  -4.9449999999999994E-002    -3388.6073572973228
  -4.8600000000000004E-002    -3800.0340437932264
  -4.7750000000000001E-002    -4252.4784043121635
  -4.6899999999999997E-002    -4748.6449193533781
  -4.6049999999999994E-002    -5291.1518928996647
  -4.5200000000000004E-002    -5882.5600088246592
  -4.4350000000000001E-002    -6525.3882887734462
  -4.3499999999999997E-002    -7222.1771914727124
  -4.2649999999999993E-002    -7975.4682583025169
  -4.1800000000000004E-002    -8787.6808615774517
  -4.0950000000000000E-002    -9661.1138643385475
  -4.0099999999999997E-002    -10597.681917216501
  -3.9249999999999993E-002    -11598.805014967498
  -3.8400000000000004E-002    -12665.286634280785
  -3.7550000000000000E-002    -13797.203655038353
  -3.6699999999999997E-002    -14993.789753014562
  -3.5850000000000007E-002    -16253.584415988018
  -3.5000000000000003E-002    -17574.300744504952
  -3.4150000000000000E-002    -18953.046718033940
  -3.3299999999999996E-002    -20386.078532732761
  -3.2450000000000007E-002    -21868.943155597513
  -3.1600000000000003E-002    -23396.204321192043
  -3.0750000000000000E-002    -24961.426828025214
  -2.9899999999999996E-002    -26556.739344682694
  -2.9050000000000006E-002    -28173.011990305080
  -2.8200000000000003E-002    -29799.270609668703
  -2.7349999999999999E-002    -31422.886740376238
  -2.6499999999999996E-002    -33029.741125027416
  -2.5650000000000006E-002    -34603.634434233827
  -2.4800000000000003E-002    -36127.305383952109
  -2.3949999999999999E-002    -37581.837305267465
  -2.3099999999999996E-002    -38947.203413749143
  -2.2250000000000006E-002    -40202.087913691008
  -2.1400000000000002E-002    -41324.081082531520
  -2.0549999999999999E-002    -42289.333308671165
  -1.9699999999999995E-002    -43073.079015529271
  -1.8850000000000006E-002    -43649.160870156440
  -1.8000000000000002E-002    -43990.661216590670
  -1.7149999999999999E-002    -44069.684632728560
  -1.6299999999999995E-002    -43858.119296527133
  -1.5450000000000005E-002    -43327.422572349024
  -1.4600000000000002E-002    -42449.744344502273
  -1.3749999999999998E-002    -41198.080832821230
  -1.2899999999999995E-002    -39546.575789154042
  -1.2050000000000005E-002    -37470.520740079461
  -1.1200000000000002E-002    -34947.465767295391
  -1.0349999999999998E-002    -31957.334522549012
  -9.5000000000000084E-003    -28481.609090166530
  -8.6500000000000049E-003    -24505.581702748364
  -7.8000000000000014E-003    -20017.159706475526
  -6.9499999999999978E-003    -15008.400290384256
  -6.1000000000000082E-003    -9475.2264982244233
  -5.2500000000000047E-003    -3419.0890152509128
  -4.4000000000000011E-003     3154.9023985337190
  -3.5499999999999976E-003     10234.107001498060
  -2.7000000000000079E-003     17801.374836576222
  -1.8500000000000044E-003     25832.765671436278
  -1.0000000000000009E-003     34298.853122284527
  -1.4999999999999736E-004     43162.642747141646
   6.9999999999999230E-004     52380.852248460877
   1.5499999999999958E-003     61905.303366603679
   2.3999999999999994E-003     71679.612063459412
   3.2500000000000029E-003     81642.361300803954
   4.0999999999999925E-003     91726.153045073559
   4.9499999999999961E-003     101858.43988271695
   5.7999999999999996E-003     111961.68363399780
   6.6499999999999893E-003     121952.14809048822
   7.5000000000000067E-003     131742.71683115989
   8.3499999999999963E-003     141244.44792758356
   9.1999999999999860E-003     150363.51322267964
   1.0050000000000003E-002     159004.73647813115
   1.0899999999999993E-002     167073.44812060613
   1.1750000000000010E-002     174473.40490358465
   1.2600000000000000E-002     181110.04476701052
   1.3449999999999990E-002     186892.30965762906
   1.4300000000000007E-002     191731.51410906913
   1.5149999999999997E-002     195544.97910643477
   1.5999999999999986E-002     198254.22062894260
   1.6850000000000004E-002     199788.55141406436
   1.7699999999999994E-002     200084.96682720684
   1.8549999999999983E-002     199089.54293064686
   1.9400000000000001E-002     196756.93999579432
   2.0249999999999990E-002     193053.57154584164
   2.1100000000000008E-002     187956.59725276456
   2.1949999999999997E-002     181455.65259488858
   2.2799999999999987E-002     173552.22200032495
   2.3650000000000004E-002     164262.67130628310
   2.4499999999999994E-002     153615.41567072569
   2.5349999999999984E-002     141653.69135681196
   2.6200000000000001E-002     128433.32125691965
   2.7049999999999991E-002     114024.97481666788
   2.7900000000000008E-002     98509.724273186148
   2.8749999999999998E-002     81982.347830521452
   2.9599999999999987E-002     64549.515972244844
   3.0450000000000005E-002     46327.203152476097
   3.1299999999999994E-002     27442.529762297330
   3.2149999999999984E-002     8030.6087257974214
   3.3000000000000002E-002    -11765.203681208215
   3.3849999999999991E-002    -31795.879255344764
   3.4700000000000009E-002    -51908.040484590121
   3.5549999999999998E-002    -71943.621505241317
   3.6399999999999988E-002    -91746.317637010216
   3.7250000000000005E-002    -111156.88401635617
   3.8099999999999995E-002    -130019.74797926689
   3.8949999999999985E-002    -148184.02545339672
   3.9800000000000002E-002    -165502.49694479018
   4.0649999999999992E-002    -181835.39935084136
   4.1500000000000009E-002    -197052.63246010366
   4.2349999999999999E-002    -211032.65608179150
   4.3199999999999988E-002    -223664.33659481379
   4.4050000000000006E-002    -234850.04564038408
   4.4899999999999995E-002    -244505.94841693304
   4.5749999999999985E-002    -252560.47186102433
   4.6600000000000003E-002    -258957.83913552199
   4.7449999999999992E-002    -263657.57436965179
   4.8299999999999982E-002    -266635.33727722254
   4.9149999999999999E-002    -267882.81886439148
   4.9999999999999989E-002    -267408.17409803451
   5.0850000000000006E-002    -265234.85138627561
   5.1699999999999996E-002    -261402.64159496050
   5.2549999999999986E-002    -255964.83057400372
   5.3400000000000003E-002    -248988.44286559906
   5.4249999999999993E-002    -240555.12885095787
   5.5099999999999982E-002    -230756.31722883609
   5.5950000000000000E-002    -219694.06181693071
   5.6799999999999989E-002    -207482.40879026687
   5.7650000000000007E-002    -194242.14583486182
   5.8499999999999996E-002    -180100.42993589712
   5.9349999999999986E-002    -165190.48712574475
   6.0200000000000004E-002    -149647.45858118232
   6.1049999999999993E-002    -133610.35176862695
   6.1899999999999983E-002    -117218.82125236414
   6.2750000000000000E-002    -100609.95053188327
   6.3599999999999990E-002    -83921.434805658908
   6.4450000000000007E-002    -67282.931807707675
   6.5299999999999997E-002    -50822.299809054653
   6.6149999999999987E-002    -34659.299352666436
   6.7000000000000004E-002    -18908.834928849246
   6.7849999999999994E-002    -3675.7010381173841
   6.8699999999999983E-002     10943.949384524003
   6.9550000000000001E-002     24862.387607867466
   7.0399999999999990E-002     38002.508448219567
   7.1249999999999980E-002     50298.071108683602
   7.2099999999999997E-002     61693.665520762595
   7.2949999999999987E-002     72143.949155209411
   7.3800000000000004E-002     81614.970400144608
   7.4649999999999994E-002     90083.617192763864
   7.5499999999999984E-002     97537.318791618658
   7.6350000000000001E-002     103973.24288408839
   7.7199999999999991E-002     109398.57077801725
   7.8049999999999981E-002     113829.03254743780
   7.8899999999999998E-002     117288.63767997183
   7.9749999999999988E-002     119808.46240926042
   8.0600000000000005E-002     121426.38316177817
   8.1449999999999995E-002     122185.66081467086
   8.2299999999999984E-002     122134.98256655814
   8.3150000000000002E-002     121327.10497276451
   8.3999999999999991E-002     119818.69016977985
   8.4849999999999981E-002     117668.84695050272
   8.5699999999999998E-002     114938.74510306545
   8.6549999999999988E-002     111690.61273147403
   8.7400000000000005E-002     107987.05215044355
   8.8249999999999995E-002     103889.68423360796
   8.9099999999999985E-002     99459.007554670592
   8.9950000000000002E-002     94753.720222642398
   9.0799999999999992E-002     89830.527147072746
   9.1649999999999981E-002     84743.436917856263
   9.2499999999999999E-002     79543.763783581962
   9.3349999999999989E-002     74279.616678277904
   9.4200000000000006E-002     68996.102378610754
   9.5049999999999996E-002     63734.642951475493
   9.5899999999999985E-002     58532.888586003552
   9.6750000000000003E-002     53424.489106022353
   9.7599999999999992E-002     48439.369314059208
   9.8449999999999982E-002     43603.184105466789
   9.9299999999999999E-002     38937.800904570482
  0.10014999999999999          34461.766707124028
  0.10099999999999998          30189.898268773090
  0.10185000000000000          26134.466531567836
  0.10269999999999999          22304.473966652356
  0.10355000000000000          18706.676174658482
  0.10439999999999999          15345.214375793168
  0.10524999999999998          12221.495848993945
  0.10610000000000000          9335.2702220887440
  0.10694999999999999          6683.6967571767937
  0.10779999999999998          4262.2564134668992
  0.10865000000000000          2064.9632263751141
  0.10949999999999999          84.309400917210951
  0.11035000000000000         -1688.2524056913444
  0.11119999999999999         -3261.4238070652182
  0.11204999999999998         -4645.4898963628802
  0.11290000000000000         -5850.3541676553841
  0.11374999999999999         -6886.6417211472281
  0.11459999999999998         -7764.5141829667909
  0.11545000000000000         -8494.9680707148364
  0.11629999999999999         -9088.7812878873847
  0.11715000000000000         -9556.6844789502811
  0.11799999999999999         -9909.5091429513104
  0.11884999999999998         -10157.689593378840
  0.11970000000000000         -10311.782606635430
  0.12054999999999999         -10381.594896501520
  0.12139999999999998         -10376.899244236050
  0.12225000000000000         -10307.205033467708
  0.12309999999999999         -10181.147222184782
  0.12395000000000000         -10007.082472152391
  0.12479999999999999         -9792.7627127489268
  0.12564999999999998         -9545.3349995501630
  0.12650000000000000         -9271.1541891573142
  0.12734999999999999         -8976.3180363671017
  0.12819999999999998         -8666.2006170757832
  0.12905000000000000         -8345.7777380124426
  0.12989999999999999         -8019.6605215724985
  0.13074999999999998         -7691.8444415680515
  0.13159999999999999         -7365.9988783896197
  0.13245000000000001         -7045.0053807584218
  0.13329999999999997         -6731.4569350703950
  0.13414999999999999         -6427.1821034412278
  0.13500000000000001         -6133.3194789922018
  0.13584999999999997         -5850.7867103544131
  0.13669999999999999         -5580.0891399569464
  0.13755000000000001         -5321.3968192541915
  0.13839999999999997         -5074.8798309770245
  0.13924999999999998         -4840.4144342109585
  0.14010000000000000         -4617.7934382781823
  0.14094999999999996         -4406.5240518219834
  0.14179999999999998         -4205.8961291671012
  0.14265000000000000         -4015.0078929820211
  0.14350000000000002         -3832.8085563397267
  0.14434999999999998         -3658.1431011687623
  0.14520000000000000         -3489.9946415051672
  0.14605000000000001         -3327.4821586706803
  0.14689999999999998         -3170.1176569077002
  0.14774999999999999         -3017.5141172754466
  0.14860000000000001         -2869.4000342453901
  0.14944999999999997         -2725.5744970939782
  0.15029999999999999         -2585.7234543395443
  0.15115000000000001         -2449.5568408625418
  0.15199999999999997         -2316.6387093316539
  0.15284999999999999         -2186.7266723142689
  0.15370000000000000         -2059.7819341637369
  0.15454999999999997         -1936.1377238361142
  0.15539999999999998         -1816.3507749403614
  0.15625000000000000         -1701.3477005283296
  0.15709999999999996         -1592.0993527743947
  0.15794999999999998         -1489.4971247909064
  0.15880000000000000         -1394.2563246310929
  0.15965000000000001         -1306.7022530965055
  0.16049999999999998         -1226.8378626780466
  0.16134999999999999         -1154.5132784458556
  0.16220000000000001         -1089.4347306746465
  0.16304999999999997         -1031.3059357442755
  0.16389999999999999         -980.00569063969112
  0.16475000000000001         -935.51971439941815
  0.16559999999999997         -897.83787457162816
  0.16644999999999999         -866.90752311631707
  0.16730000000000000         -842.50831692853069
  0.16814999999999997         -824.11130320360030
  0.16899999999999998         -810.96486978202597
  0.16985000000000000         -802.09546578508514
  0.17069999999999996         -796.40342509197740
  0.17154999999999998         -792.81185376850840
  0.17240000000000000         -790.40812105998577
  0.17325000000000002         -788.36424633985712
  0.17409999999999998         -785.95791207941284
  0.17494999999999999         -782.55976196044310
  0.17580000000000001         -777.60236770127665
  0.17664999999999997         -770.45869140501338
  0.17749999999999999         -760.67379016763471
  0.17835000000000001         -747.70796970415552
  0.17919999999999997         -731.29673002483992
  0.18004999999999999         -711.33774397234242
  0.18090000000000001         -687.90650015782535
  0.18174999999999997         -661.25516054400157
  0.18259999999999998         -631.77840354605041
  0.18345000000000000         -599.89637696015950
  0.18429999999999996         -566.10840141571680
  0.18514999999999998         -530.90354885436125
  0.18600000000000000         -494.83406161131433
  0.18684999999999996         -458.56054353912805
  0.18769999999999998         -422.79859775746132
  0.18855000000000000         -388.28474631889497
  0.18940000000000001         -355.80362575029238
  0.19024999999999997         -325.97939518835335
  0.19109999999999999         -299.28434601810540
  0.19195000000000001         -275.99366183550012
  0.19279999999999997         -256.16624725875567
  0.19364999999999999         -239.78786177557328
  0.19450000000000001         -226.76992211791514
  0.19534999999999997         -217.07951610850012
  0.19619999999999999         -210.77658155827609
  0.19705000000000000         -207.91837567645095
  0.19789999999999996         -208.53713805943582
  0.19874999999999998         -212.54829094193727
  0.19960000000000000         -219.62842811473323
  0.20044999999999996         -229.20150785096143
  0.20129999999999998         -240.51015792000396
  0.20215000000000000         -252.69277796291732
  0.20300000000000001         -264.88351069657483
  0.20384999999999998         -276.32837945437097
  0.20469999999999999         -286.47066545093014
  0.20555000000000001         -294.87307405894103
  0.20639999999999997         -301.21473507834787
  0.20724999999999999         -305.22773800546526
  0.20810000000000001         -306.64672836363610
  0.20894999999999997         -305.17712707659712
  0.20979999999999999         -300.64021207675171
  0.21065000000000000         -292.93230527417336
  0.21149999999999997         -282.19530864858723
  0.21234999999999998         -268.78552113200220
  0.21320000000000000         -253.27057102144337
  0.21404999999999996         -236.31678008655831
  0.21489999999999998         -218.55025359857774
  0.21575000000000000         -200.49468885427933
  0.21659999999999996         -182.46799592982163
  0.21744999999999998         -164.66765566929249
  0.21829999999999999         -147.20783758758012
  0.21915000000000001         -130.25209090495699
  0.21999999999999997         -114.11272838794179
  0.22084999999999999         -99.295588138975575
  0.22170000000000001         -86.410432712911515
  0.22254999999999997         -76.106452646432629
  0.22339999999999999         -68.860734573766706
  0.22425000000000000         -64.909569764624848
  0.22509999999999997         -64.170245197823576
  0.22594999999999998         -66.275236310694254
  0.22680000000000000         -70.705010941322044
  0.22764999999999996         -76.927819331326930
  0.22849999999999998         -84.528517375900449
  0.22935000000000000         -93.262835171314848
  0.23019999999999996         -103.01487005016594
  0.23104999999999998         -113.69080779458069
  0.23190000000000000         -125.07124887874961
  0.23275000000000001         -136.71947477474262
  0.23359999999999997         -147.95071209094897
  0.23444999999999999         -157.87946939104734
  0.23530000000000001         -165.60488075136726
  0.23614999999999997         -170.36555332539814
  0.23699999999999999         -171.70525292835322
  0.23785000000000001         -169.56719638921828
  0.23869999999999997         -164.22943365339029
  0.23954999999999999         -156.21002591606833
  0.24040000000000000         -146.07798143404989
  0.24124999999999996         -134.33880585215076
  0.24209999999999998         -121.28514310110464
  0.24295000000000000         -107.03416723111408
  0.24379999999999996         -91.569513881162436
  0.24464999999999998         -74.882079389390668
  0.24550000000000000         -57.100719496530132
  0.24634999999999996         -38.560952187918829
  0.24719999999999998         -19.823044630295858
  0.24804999999999999         -1.6195688178806886
  0.24890000000000001          15.277225897820522
  0.24974999999999997          30.133328878282271
  0.25059999999999999          42.363957158264490
  0.25145000000000001          51.574164392479112
  0.25229999999999997          57.539576994136411
  0.25314999999999999          60.166136298264057
  0.25400000000000000          59.454610455175107
  0.25484999999999997          55.474656786541644
  0.25569999999999998          48.317875448728579
  0.25655000000000000          38.151994605252860
  0.25739999999999996          25.205286538111626
  0.25824999999999998          9.7816317623908233
  0.25910000000000000         -7.7306469838162606
  0.25994999999999996         -26.907950983357761
  0.26079999999999998         -47.282347603971637
  0.26164999999999999         -68.358329739551465
  0.26249999999999996         -89.629351369431276
  0.26334999999999997         -110.56455505267834
  0.26419999999999999         -130.57846048731901
  0.26505000000000001         -149.06249647774442
  0.26589999999999997         -165.39802639972532
  0.26674999999999999         -179.01859031430411
  0.26760000000000000         -189.49134203022030
  0.26844999999999997         -196.56693367331616
  0.26929999999999998         -200.22523117117689
  0.27015000000000000         -200.62931652743578
  0.27099999999999996         -198.06822033548880
  0.27184999999999998         -192.84803817161421
  0.27270000000000000         -185.19132553826989
  0.27354999999999996         -175.20890204900687
  0.27439999999999998         -162.87542817925382
  0.27524999999999999         -148.14003254499249
  0.27609999999999996         -131.02935475962516
  0.27694999999999997         -111.75876053819380
  0.27779999999999999         -90.808223578167841
  0.27865000000000001         -68.898645634427197
  0.27949999999999997         -46.926787496062190
  0.28034999999999999         -25.800480634164675
  0.28120000000000001         -6.2978118919271013
  0.28204999999999997          11.061006582762307
  0.28289999999999998          26.043308793942273
  0.28375000000000000          38.680070652512363
  0.28459999999999996          49.114869279335977
  0.28544999999999998          57.525459989478470
  0.28630000000000000          63.989655280838910
  0.28714999999999996          68.455693525955780
  0.28799999999999998          70.775054290775543
  0.28885000000000000          70.795797579796997
  0.28969999999999996          68.474864165294193
  0.29054999999999997          63.954143197750454
  0.29139999999999999          57.597995794214029
  0.29224999999999995          49.946240826952049
  0.29309999999999997          41.599158675055769
  0.29394999999999999          33.110177042871570
  0.29480000000000001          24.891245341943161
  0.29564999999999997          17.163552699723194
  0.29649999999999999          9.9901705911089742
  0.29735000000000000          3.3563681419111653
  0.29819999999999997         -2.7325155351189565
  0.29904999999999998         -8.1911751176016416
  0.29990000000000000         -12.826699939589354
  0.30074999999999996         -16.372441090236187
  0.30159999999999998         -18.570752292220828
  0.30245000000000000         -19.261725546220305
  0.30329999999999996         -18.443304454876532
  0.30414999999999998         -16.292141567968006
  0.30499999999999999         -13.123885965160680
  0.30584999999999996         -9.3212853295154581
  0.30669999999999997         -5.2575305735005475
  0.30754999999999999         -1.2530515618657700
  0.30840000000000001          2.4422308403323183
  0.30924999999999997          5.6100358840362494
  0.31009999999999999          8.0212073491461879
  0.31095000000000000          9.4102858354050287
  0.31179999999999997          9.4583979735128523
  0.31264999999999998          7.8471420175395235
  0.31350000000000000          4.3290222451647082
  0.31434999999999996         -1.1935642838644114
  0.31519999999999998         -8.6144039694306223
  0.31605000000000000         -17.641541119727329
  0.31689999999999996         -27.848831494628875
  0.31774999999999998         -38.794413160459015
  0.31859999999999999         -50.122233563424430
  0.31944999999999996         -61.632524278265137
  0.32029999999999997         -73.289126595704275
  0.32114999999999999         -85.153329479403325
  0.32199999999999995         -97.257160901483005
  0.32284999999999997         -109.50195552696796
  0.32369999999999999         -121.55505612264801
  0.32455000000000001         -132.85892408940384
  0.32539999999999997         -142.69342808166365
  0.32624999999999998         -150.31688043048717
  0.32710000000000000         -155.11358416275198
  0.32794999999999996         -156.72788614416484
  0.32879999999999998         -155.09009331061634
  0.32965000000000000         -150.40398843023607
  0.33049999999999996         -143.02422808111152
  0.33134999999999998         -133.32882918309645
  0.33220000000000000         -121.60237014937994
  0.33304999999999996         -107.98042927484032
  0.33389999999999997         -92.464386017282180
  0.33474999999999999         -75.008553867537557
  0.33559999999999995         -55.634071861518535
  0.33644999999999997         -34.529508605950795
  0.33729999999999999         -12.102626398911339
  0.33815000000000001          11.035399266366683
  0.33899999999999997          34.140684033077143
  0.33984999999999999          56.446335373649390
  0.34070000000000000          77.265633366432382
  0.34154999999999996          96.061789249808598
  0.34239999999999998          112.47631131329753
  0.34325000000000000          126.30066787768718
  0.34409999999999996          137.43139175404758
  0.34494999999999998          145.82511928837971
  0.34580000000000000          151.45959355344075
  0.34664999999999996          154.31970125951295
  0.34749999999999998          154.41546883724121
  0.34834999999999999          151.78673031872344
  0.34919999999999995          146.51486796614040
  0.35004999999999997          138.71496812968849
  0.35089999999999999          128.52586473641102
  0.35174999999999995          116.10044271752052
  0.35259999999999997          101.61122709945808
  0.35344999999999999          85.281466161987353
  0.35430000000000000          67.429201608413649
  0.35514999999999997          48.495988701510498
  0.35599999999999998          29.054642441051215
  0.35685000000000000          9.7683519921504782
  0.35769999999999996         -8.6801058990559312
  0.35854999999999998         -25.711716054476515
  0.35940000000000000         -40.937354813910360
  0.36024999999999996         -54.214638877755533
  0.36109999999999998         -65.633802083887531
  0.36194999999999999         -75.429045665914728
  0.36279999999999996         -83.862782723458082
  0.36364999999999997         -91.088943862574823
  0.36449999999999999         -97.081291917639120
  0.36534999999999995         -101.62992447226588
  0.36619999999999997         -104.42327743019170
  0.36704999999999999         -105.18804671991185
  0.36790000000000000         -103.83978982683659
  0.36874999999999997         -100.58306324443548
  0.36959999999999998         -95.927193935201842
  0.37045000000000000         -90.603961951121164
  0.37129999999999996         -85.418290000499766
  0.37214999999999998         -81.060368615823208
  0.37300000000000000         -77.966823931621846
  0.37384999999999996         -76.261503223891452
  0.37469999999999998         -75.783112000478411
  0.37554999999999999         -76.214042163426086
  0.37639999999999996         -77.235297836972279
  0.37724999999999997         -78.667129675355085
  0.37809999999999999         -80.545885122214074
  0.37894999999999995         -83.119253135009956
  0.37979999999999997         -86.762039250324634
  0.38064999999999993         -91.856674296322325
  0.38149999999999995         -98.675668406630379
  0.38234999999999997         -107.31405783546892
  0.38319999999999999         -117.68136197718090
  0.38405000000000000         -129.55361851026890
  0.38490000000000002         -142.65558337720589
  0.38574999999999993         -156.74270026047591
  0.38659999999999994         -171.65722875015925
  0.38744999999999996         -187.33872950607736