 -0.12000000000000000          0.0000000000000000
 -0.11914999999999999          0.0000000000000000
 -0.11830000000000000          0.0000000000000000
 -0.11745000000000000          0.0000000000000000
 -0.11660000000000000          0.0000000000000000
 -0.11574999999999999          0.0000000000000000
 -0.11490000000000000          0.0000000000000000
 -0.11405000000000000          0.0000000000000000
 -0.11320000000000000          1.9954670728374965E-019
 -0.11234999999999999          2.4343863737236102E-018
 -0.11150000000000000          1.4452213533877428E-017
 -0.11065000000000000          5.3129843980273543E-017
 -0.10979999999999999          1.2076815687912554E-016
 -0.10894999999999999          9.1589677892727582E-017
 -0.10810000000000000         -5.5532939626060604E-016
 -0.10725000000000000         -3.0544991539097997E-015
 -0.10639999999999999         -9.1377081274622205E-015
 -0.10554999999999999         -1.8962907771335552E-014
 -0.10470000000000000         -2.5563527009594625E-014
 -0.10385000000000000         -5.8428079420392571E-015
 -0.10299999999999999          8.6434013763150610E-014
 -0.10214999999999999          3.1079717348948246E-013
 -0.10130000000000000          6.8973870694801231E-013
 -0.10045000000000000          1.0979105771820247E-012
  -9.9599999999999994E-002     1.1041690970100485E-012
  -9.8750000000000004E-002    -1.4507503328128978E-013
  -9.7900000000000001E-002    -3.8083393696103047E-012
  -9.7049999999999997E-002    -1.0729667300011921E-011
  -9.6199999999999994E-002    -2.0115796022416411E-011
  -9.5349999999999990E-002    -2.7647128202875589E-011
  -9.4500000000000001E-002    -2.3833290287521185E-011
  -9.3649999999999997E-002     5.7037743304085113E-012
  -9.2799999999999994E-002     7.5717635160079039E-011
  -9.1950000000000004E-002     1.9069120303741055E-010
  -9.1100000000000000E-002     3.2839787072928859E-010
  -9.0249999999999997E-002     4.2248320265975925E-010
  -8.9399999999999993E-002     3.5481396840663718E-010
  -8.8549999999999990E-002    -2.6765406629425709E-011
  -8.7700000000000000E-002    -8.4994241462643631E-010
  -8.6849999999999997E-002    -2.1135430401000847E-009
  -8.5999999999999993E-002    -3.5548320933637062E-009
  -8.5150000000000003E-002    -4.5389840120027216E-009
  -8.4300000000000000E-002    -4.0538294294636908E-009
  -8.3449999999999996E-002    -9.0682935136515310E-010
  -8.2600000000000007E-002     5.8064514198646439E-009
  -8.1749999999999989E-002     1.5979729366225479E-008
  -8.0900000000000000E-002     2.7681468575239429E-008
  -8.0049999999999996E-002     3.6582363729698578E-008
  -7.9199999999999993E-002     3.6091311962559002E-008
  -7.8350000000000003E-002     1.8666044279431425E-008
  -7.7499999999999999E-002    -2.1455904562762933E-008
  -7.6649999999999996E-002    -8.4345364839924397E-008
  -7.5800000000000006E-002    -1.6022225900441125E-007
  -7.4949999999999989E-002    -2.2670472560731397E-007
  -7.4099999999999999E-002    -2.4957003886486189E-007
  -7.3249999999999996E-002    -1.8894723733357673E-007
  -7.2399999999999992E-002    -1.1760158973147741E-008
  -7.1550000000000002E-002     2.9083683802118503E-007
  -7.0699999999999999E-002     6.8501505911369723E-007
  -6.9849999999999995E-002     1.0814460921073668E-006
  -6.9000000000000006E-002     1.3361518913997001E-006
  -6.8149999999999988E-002     1.2721931273734816E-006
  -6.7299999999999999E-002     7.2524912971736711E-007
  -6.6449999999999995E-002    -3.9109161226648849E-007
  -6.5599999999999992E-002    -2.0137322237451014E-006
  -6.4750000000000002E-002    -3.8742508451453473E-006
  -6.3899999999999998E-002    -5.4857906045768602E-006
  -6.3049999999999995E-002    -6.1971757000454925E-006
  -6.2199999999999998E-002    -5.3268032188892804E-006
  -6.1350000000000002E-002    -2.3676778441138365E-006
  -6.0499999999999998E-002     2.7722215075464702E-006
  -5.9650000000000002E-002     9.5562401471618503E-006
  -5.8799999999999998E-002     1.6710488106098689E-005
  -5.7950000000000002E-002     2.2296437833226896E-005
  -5.7099999999999998E-002     2.4013468310286965E-005
  -5.6249999999999994E-002     1.9727739133741672E-005
  -5.5400000000000005E-002     8.1542546928226405E-006
  -5.4550000000000001E-002    -1.0452571927027567E-005
  -5.3699999999999998E-002    -3.3796629045695327E-005
  -5.2849999999999994E-002    -5.7433792373524383E-005
  -5.2000000000000005E-002    -7.5224057759481602E-005
  -5.1150000000000001E-002    -8.0397490254047587E-005
  -5.0299999999999997E-002    -6.7136631452978043E-005
  -4.9449999999999994E-002    -3.2406369501362641E-005
  -4.8600000000000004E-002     2.2382345568165829E-005
  -4.7750000000000001E-002     9.0360067646082917E-005
  -4.6899999999999997E-002     1.5928373153649419E-004
  -4.6049999999999994E-002     2.1299552740791346E-004
  -4.5200000000000004E-002     2.3425165062195620E-004
  -4.4350000000000001E-002     2.0856551099325985E-004
  -4.3499999999999997E-002     1.2837211381675504E-004
  -4.2649999999999993E-002    -3.4203769557165762E-006
  -4.1800000000000004E-002    -1.7148672175348599E-004
  -4.0950000000000000E-002    -3.4856548993551616E-004
  -4.0099999999999997E-002    -4.9877874092887279E-004
  -3.9249999999999993E-002    -5.8361234157052323E-004
  -3.8400000000000004E-002    -5.6973017018403837E-004
  -3.7550000000000000E-002    -4.3721636990840966E-004
  -3.6699999999999997E-002    -1.8649931993980169E-004
  -3.5850000000000007E-002     1.5779466940414824E-004
  -3.5000000000000003E-002     5.4740304435564038E-004
  -3.4150000000000000E-002     9.1599302091775270E-004
  -3.3299999999999996E-002     1.1893205417948531E-003
  -3.2450000000000007E-002     1.2985307030481078E-003
  -3.1600000000000003E-002     1.1942962401972231E-003
  -3.0750000000000000E-002     8.5904355326241796E-004
  -2.9899999999999996E-002     3.1459714594304862E-004
  -2.9050000000000006E-002    -3.7675862531698313E-004
  -2.8200000000000003E-002    -1.1186685383129196E-003
  -2.7349999999999999E-002    -1.7939870239753013E-003
  -2.6499999999999996E-002    -2.2830085910625422E-003
  -2.5650000000000006E-002    -2.4835939637634120E-003
  -2.4800000000000003E-002    -2.3296341590529424E-003
  -2.3949999999999999E-002    -1.8044333443672446E-003
  -2.3099999999999996E-002    -9.4648821559545620E-004
  -2.2250000000000006E-002     1.5351314694568086E-004
  -2.1400000000000002E-002     1.3639936365133589E-003
  -2.0549999999999999E-002     2.5301106611417242E-003
  -1.9699999999999995E-002     3.4946279614867588E-003
  -1.8850000000000006E-002     4.1185415569385533E-003
  -1.8000000000000002E-002     4.2982935796666462E-003
  -1.7149999999999999E-002     3.9773576365594353E-003
  -1.6299999999999995E-002     3.1513519422783198E-003
  -1.5450000000000005E-002     1.8671924027816502E-003
  -1.4600000000000002E-002     2.1784800858367506E-004
  -1.3749999999999998E-002    -1.6652780569237726E-003
  -1.2899999999999995E-002    -3.6206306095951882E-003
  -1.2050000000000005E-002    -5.4645913382551240E-003
  -1.1200000000000002E-002    -6.9997454836881797E-003
  -1.0349999999999998E-002    -8.0247756108964702E-003
  -9.5000000000000084E-003    -8.3479969172959075E-003
  -8.6500000000000049E-003    -7.8062191592142690E-003
  -7.8000000000000014E-003    -6.2892902675158614E-003
  -6.9499999999999978E-003    -3.7686563904864457E-003
  -6.1000000000000082E-003    -3.2573666975055815E-004
  -5.2500000000000047E-003     3.8259948161776421E-003
  -4.4000000000000011E-003     8.3325655388825498E-003
  -3.5499999999999976E-003     1.2711242104668972E-002
  -2.7000000000000079E-003     1.6386844614287244E-002
  -1.8500000000000044E-003     1.8752753006733135E-002
  -1.0000000000000009E-003     1.9251964292305537E-002
  -1.4999999999999736E-004     1.7468255557632036E-002
   6.9999999999999230E-004     1.3213925580937159E-002
   1.5499999999999958E-003     6.5984857888440867E-003
   2.3999999999999994E-003    -1.9360021548861820E-003
   3.2500000000000029E-003    -1.1623603969373862E-002
   4.0999999999999925E-003    -2.1431659446786898E-002
   4.9499999999999961E-003    -3.0163124332549241E-002
   5.7999999999999996E-003    -3.6593868663602036E-002
   6.6499999999999893E-003    -3.9628150718703160E-002
   7.5000000000000067E-003    -3.8452183263582039E-002
   8.3499999999999963E-003    -3.2665170719243075E-002
   9.1999999999999860E-003    -2.2369647355273022E-002
   1.0050000000000003E-002    -8.2074980712072525E-003
   1.0899999999999993E-002     8.6649742857255619E-003
   1.1750000000000010E-002     2.6663017237811969E-002
   1.2600000000000000E-002     4.3913781850009284E-002
   1.3449999999999990E-002     5.8438506624138471E-002
   1.4300000000000007E-002     6.8359761829491827E-002
   1.5149999999999997E-002     7.2114037603572337E-002
   1.5999999999999986E-002     6.8647776686324033E-002
   1.6850000000000004E-002     5.7575942294383349E-002
   1.7699999999999994E-002     3.9282751208769465E-002
   1.8549999999999983E-002     1.4949535395624759E-002
   1.9400000000000001E-002    -1.3500384399026314E-002
   2.0249999999999990E-002    -4.3540734810196234E-002
   2.1100000000000008E-002    -7.2257352137541003E-002
   2.1949999999999997E-002    -9.6621037929243883E-002
   2.2799999999999987E-002   -0.11379186960505722
   2.3650000000000004E-002   -0.12142355776412517
   2.4499999999999994E-002   -0.11793411369383083
   2.5349999999999984E-002   -0.10271328598939157
   2.6200000000000001E-002    -7.6242900555944182E-002
   2.7049999999999991E-002    -4.0116629751564437E-002
   2.7900000000000008E-002     3.0436901463357334E-003
   2.8749999999999998E-002     4.9769266129700222E-002
   2.9599999999999987E-002     9.6008901339510830E-002
   3.0450000000000005E-002    0.13745661419428792
   3.1299999999999994E-002    0.16991937746920932
   3.2149999999999984E-002    0.18970013440716049
   3.3000000000000002E-002    0.19396604825471919
   3.3849999999999991E-002    0.18107311184440583
   3.4700000000000009E-002    0.15081350706855137
   3.5549999999999998E-002    0.10455427314282305
   3.6399999999999988E-002     4.5239728541000924E-002
   3.7250000000000005E-002    -2.2760738623842508E-002
   3.8099999999999995E-002    -9.3961248509734058E-002
   3.8949999999999985E-002   -0.16220712947293425
   3.9800000000000002E-002   -0.22122342458593805
   4.0649999999999992E-002   -0.26520915129747702
   4.1500000000000009E-002   -0.28940985731670343
   4.2349999999999999E-002   -0.29060492928560000
   4.3199999999999988E-002   -0.26745214752339208
   4.4050000000000006E-002   -0.22065629004599141
   4.4899999999999995E-002   -0.15294934178291947
   4.5749999999999985E-002    -6.8893709902354855E-002
   4.6600000000000003E-002     2.5461411129546099E-002
   4.7449999999999992E-002    0.12303318084229653
   4.8299999999999982E-002    0.21622859352483462
   4.9149999999999999E-002    0.29750233833015138
   4.9999999999999989E-002    0.35992268856349724
   5.0850000000000006E-002    0.39771698589753607
   5.1699999999999996E-002    0.40676718888190921
   5.2549999999999986E-002    0.38502113125014442
   5.3400000000000003E-002    0.33277446142946177
   5.4249999999999993E-002    0.25277610014425772
   5.5099999999999982E-002    0.15012021118749885
   5.5950000000000000E-002     3.1905685146957602E-002
   5.6799999999999989E-002    -9.3321704964668600E-002
   5.7650000000000007E-002   -0.21629379712908328
   5.8499999999999996E-002   -0.32782497361210061
   5.9349999999999986E-002   -0.41959771113874023
   6.0200000000000004E-002   -0.48482399920714025
   6.1049999999999993E-002   -0.51870925335912521
   6.1899999999999983E-002   -0.51868197631997848
   6.2750000000000000E-002   -0.48440395606940245
   6.3599999999999990E-002   -0.41761330878051112
   6.4450000000000007E-002   -0.32187651575714005
   6.5299999999999997E-002   -0.20232199209348761
   6.6149999999999987E-002    -6.5401097470231678E-002
   6.7000000000000004E-002     8.1320360344793757E-002
   6.7849999999999994E-002    0.22937456339048029
   6.8699999999999983E-002    0.36967208753023661
   6.9550000000000001E-002    0.49290755077685733
   7.0399999999999990E-002    0.59012435706324229
   7.1249999999999980E-002    0.65341977142690033
   7.2099999999999997E-002    0.67671395566837056
   7.2949999999999987E-002    0.65646849763038639
   7.3800000000000004E-002    0.59221845172438403
   7.4649999999999994E-002    0.48680819388789831
   7.5499999999999984E-002    0.34626836592366367
   7.6350000000000001E-002    0.17934307392014237
   7.7199999999999991E-002    -3.2546939064551327E-003
   7.8049999999999981E-002   -0.18973767849128234
   7.8899999999999998E-002   -0.36815099650504352
   7.9749999999999988E-002   -0.52718043110695489
   8.0600000000000005E-002   -0.65680188519079075
   8.1449999999999995E-002   -0.74876551910273381
   8.2299999999999984E-002   -0.79696067645514435
   8.3150000000000002E-002   -0.79771495943638315
   8.3999999999999991E-002   -0.75006897123847693
   8.4849999999999981E-002   -0.65601752209453845
   8.5699999999999998E-002   -0.52065900292791512
   8.6549999999999988E-002   -0.35215140015010116
   8.7400000000000005E-002   -0.16137104279507614
   8.8249999999999995E-002     3.8790697418343796E-002
   8.9099999999999985E-002    0.23448338268097482
   8.9950000000000002E-002    0.41220274954523767
   9.0799999999999992E-002    0.56015924004714623
   9.1649999999999981E-002    0.66948146980644940
   9.2499999999999999E-002    0.73503508790188121
   9.3349999999999989E-002    0.75571191053400810
   9.4200000000000006E-002    0.73414917359840148
   9.5049999999999996E-002    0.67596570224421593
   9.5899999999999985E-002    0.58869790150100376
   9.6750000000000003E-002    0.48066719413849501
   9.7599999999999992E-002    0.36000542763208387
   9.8449999999999982E-002    0.23398066885385935
   9.9299999999999999E-002    0.10867517195275964
  0.10014999999999999         -1.1045850514475868E-002
  0.10099999999999998        -0.12140094369856971
  0.10185000000000000        -0.21954421537123608
  0.10269999999999999        -0.30351013599003973
  0.10355000000000000        -0.37228235185564057
  0.10439999999999999        -0.42592931919464333
  0.10524999999999998        -0.46568915314398301
  0.10610000000000000        -0.49386067159795888
  0.10694999999999999        -0.51341829162086994
  0.10779999999999998        -0.52734593850945399
  0.10865000000000000        -0.53779978643423698
  0.10949999999999999        -0.54529850935688828
  0.11035000000000000        -0.54817712276460939
  0.11119999999999999        -0.54252635455527953
  0.11204999999999998        -0.52270164484361203
  0.11290000000000000        -0.48237824254309342
  0.11374999999999999        -0.41597534658011676
  0.11459999999999998        -0.32012587599114689
  0.11545000000000000        -0.19489531547652419
  0.11629999999999999         -4.4415614424879603E-002
  0.11715000000000000         0.12317371838693676
  0.11799999999999999         0.29655690672908580
  0.11884999999999998         0.46261609709183477
  0.11970000000000000         0.60812211229839863
  0.12054999999999999         0.72142256321978149
  0.12139999999999998         0.79379784109601992
  0.12225000000000000         0.82030132837910619
  0.12309999999999999         0.80003248544253081
  0.12395000000000000         0.73587662907595597
  0.12479999999999999         0.63390107998617806
  0.12564999999999998         0.50246935844658824
  0.12650000000000000         0.35132996847376380
  0.12734999999999999         0.19072486390861537
  0.12819999999999998          3.0563632072291874E-002
  0.12905000000000000        -0.12056201322306179
  0.12989999999999999        -0.25611167736270085
  0.13074999999999998        -0.37264419065973159
  0.13159999999999999        -0.47049642609535347
  0.13245000000000001        -0.55442841187919267
  0.13329999999999997        -0.63388543571766576
  0.13414999999999999        -0.72248542265446780
  0.13500000000000001        -0.83706264819239407
  0.13584999999999997        -0.99587681647085180
  0.13669999999999999         -1.2169225427898258
  0.13755000000000001         -1.5153191065072464
  0.13839999999999997         -1.9020112194249066
  0.13924999999999998         -2.3824823552957959
  0.14010000000000000         -2.9570037344468911
  0.14094999999999996         -3.6213529619991949
  0.14179999999999998         -4.3689904986166264
  0.14265000000000000         -5.1941240175844365
  0.14350000000000002         -6.0939750481429513
  0.14434999999999998         -7.0729479073326242
  0.14520000000000000         -8.1439125983032845
  0.14605000000000001         -9.3320705118482650
  0.14689999999999998         -10.674785096576230
  0.14774999999999999         -12.223391407504408
  0.14860000000000001         -14.042777435106666
  0.14944999999999997         -16.211174480448918
  0.15029999999999999         -18.818147541930745
  0.15115000000000001         -21.965844356828576
  0.15199999999999997         -25.765505638846136
  0.15284999999999999         -30.337014079392194
  0.15370000000000000         -35.806328739960747
  0.15454999999999997         -42.305822414962357
  0.15539999999999998         -49.974792134860444
  0.15625000000000000         -58.956831038937203
  0.15709999999999996         -69.404429157464122
  0.15794999999999998         -81.484901137001899
  0.15880000000000000         -95.383301583726478
  0.15965000000000001         -111.31138342074928
  0.16049999999999998         -129.51173086808720
  0.16134999999999999         -150.27082814271526
  0.16220000000000001         -173.92115932593035
  0.16304999999999997         -200.83993401786839
  0.16389999999999999         -231.45875311036625
  0.16475000000000001         -266.25915811353616
  0.16559999999999997         -305.77351112308821
  0.16644999999999999         -350.57291383351611
  0.16730000000000000         -401.27557522442692
  0.16814999999999997         -458.53496979770927
  0.16899999999999998         -523.03948890993740
  0.16985000000000000         -595.51441444326497
  0.17069999999999996         -676.71521698006734
  0.17154999999999998         -767.42807796741192
  0.17240000000000000         -868.48391071332867
  0.17325000000000002         -980.73787567387922
  0.17409999999999998         -1105.0823008152988
  0.17494999999999999         -1242.4464778119400
  0.17580000000000001         -1393.7961282019412
  0.17664999999999997         -1560.1147642450117
  0.17749999999999999         -1742.4232810829351
  0.17835000000000001         -1941.7570163857724
  0.17919999999999997         -2159.1760043809104
  0.18004999999999999         -2395.7619178028831
  0.18090000000000001         -2652.5802910491279
  0.18174999999999997         -2930.6984431365709
  0.18259999999999998         -3231.1371149311758
  0.18345000000000000         -3554.8855635824784
  0.18429999999999996         -3902.8203416542560
  0.18514999999999998         -4275.7711296088110
  0.18600000000000000         -4674.3663015358161
  0.18684999999999996         -5099.1065611614104
  0.18769999999999998         -5550.2804955636293
  0.18855000000000000         -6027.9354687561026
  0.18940000000000001         -6531.8584288893471
  0.19024999999999997         -7061.5460015148983
  0.19109999999999999         -7616.1547285944480
  0.19195000000000001         -8194.4472681917923
  0.19279999999999997         -8794.8258141234001
  0.19364999999999999         -9415.2245384408925
  0.19450000000000001         -10053.183950334840
  0.19534999999999997         -10705.707066547910
  0.19619999999999999         -11369.225796693603
  0.19705000000000000         -12039.671059694232
  0.19789999999999996         -12712.365834204013
  0.19874999999999998         -13381.971039769189
  0.19960000000000000         -14042.595831220511
  0.20044999999999996         -14687.545406100466
  0.20129999999999998         -15309.480425478607
  0.20215000000000000         -15900.371241835446
  0.20300000000000001         -16451.447498476122
  0.20384999999999998         -16953.303613902994
  0.20469999999999999         -17395.845930809592
  0.20555000000000001         -17768.426577844555
  0.20639999999999997         -18059.904268309641
  0.20724999999999999         -18258.593100036422
  0.20810000000000001         -18352.555114316725
  0.20894999999999997         -18329.591724509897
  0.20979999999999999         -18177.497581285457
  0.21065000000000000         -17883.949301912689
  0.21149999999999997         -17436.885251692744
  0.21234999999999998         -16824.480633192241
  0.21320000000000000         -16035.568098072990
  0.21404999999999996         -15059.612923611759
  0.21489999999999998         -13886.912159111414
  0.21575000000000000         -12509.027312723894
  0.21659999999999996         -10918.442823971653
  0.21744999999999998         -9109.8522202906970
  0.21829999999999999         -7079.0350044468305
  0.21915000000000001         -4823.9387310333068
  0.21999999999999997         -2344.7588826917568
  0.22084999999999999          356.37833334262837
  0.22170000000000001          3274.5398416397084
  0.22254999999999997          6402.6528296364686
  0.22339999999999999          9730.4733115176277
  0.22425000000000000          13245.493291820181
  0.22509999999999997          16932.032714131972
  0.22594999999999998          20771.621981097654
  0.22680000000000000          24742.995226779101
  0.22764999999999996          28822.109507677826
  0.22849999999999998          32982.162291864326
  0.22935000000000000          37193.582927759016
  0.23019999999999996          41424.566474360698
  0.23104999999999998          45641.052220985141
  0.23190000000000000          49807.052942910690
  0.23275000000000001          53884.686386562949
  0.23359999999999997          57835.318268832452
  0.23444999999999999          61618.755750593933
  0.23530000000000001          65194.623719753108
  0.23614999999999997          68522.476150837902
  0.23699999999999999          71561.839567634568
  0.23785000000000001          74273.713608567996
  0.23869999999999997          76619.925485340937
  0.23954999999999999          78564.291480957181
  0.24040000000000000          80072.780069388798
  0.24124999999999996          81114.428848717929
  0.24209999999999998          81661.235199865318
  0.24295000000000000          81688.897127672084
  0.24379999999999996          81176.723084048645
  0.24464999999999998          80109.328149509907
  0.24550000000000000          78475.035131642508
  0.24634999999999996          76267.975508152536
  0.24719999999999998          73487.242786655697
  0.24804999999999999          70137.351339639456
  0.24890000000000001          66228.425246859901
  0.24974999999999997          61776.258773924055
  0.25059999999999999          56801.878496956429
  0.25145000000000001          51332.017438870127
  0.25229999999999997          45398.196737234670
  0.25314999999999999          39037.423850240870
  0.25400000000000000          32290.850376736318
  0.25484999999999997          25204.771580970304
  0.25569999999999998          17828.464154570378
  0.25655000000000000          10215.564721777821
  0.25739999999999996          2422.0636722315330
  0.25824999999999998         -5493.3251750672007
  0.25910000000000000         -13470.064837894470
  0.25994999999999996         -21446.500142372035
  0.26079999999999998         -29360.608407502845
  0.26164999999999999         -37150.414407030505
  0.26249999999999996         -44754.313957250713
  0.26334999999999997         -52112.690547687227
  0.26419999999999999         -59167.917699829653
  0.26505000000000001         -65864.573331678839
  0.26589999999999997         -72150.938993219126
  0.26674999999999999         -77978.519507264064
  0.26760000000000000         -83303.650451857873
  0.26844999999999997         -88086.997946857387
  0.26929999999999998         -92294.265855409816
  0.27015000000000000         -95897.132117670277
  0.27099999999999996         -98871.847475021437
  0.27184999999999998         -101202.02402158114
  0.27270000000000000         -102875.59979175741
  0.27354999999999996         -103887.44667487901
  0.27439999999999998         -104238.21330437994
  0.27524999999999999         -103934.28253687169
  0.27609999999999996         -102987.92894022848
  0.27694999999999997         -101416.47279755116
  0.27779999999999999         -99243.412033881206
  0.27865000000000001         -96496.151461983201
  0.27949999999999997         -93207.131263165560
  0.28034999999999999         -89413.041546104680
  0.28120000000000001         -85153.245536831557
  0.28204999999999997         -80471.480611086823
  0.28289999999999998         -75413.611296017087
  0.28375000000000000         -70026.968186259517
  0.28459999999999996         -64361.667309843113
  0.28544999999999998         -58467.511995856177
  0.28630000000000000         -52395.860521864175
  0.28714999999999996         -46197.075234238109
  0.28799999999999998         -39921.663917581100
  0.28885000000000000         -33618.678488709316
  0.28969999999999996         -27336.348658663923
  0.29054999999999997         -21120.123086230640
  0.29139999999999999         -15013.754000445524
  0.29224999999999995         -9058.4232933240273
  0.29309999999999997         -3291.7147090833478
  0.29394999999999999          2251.1317777281502
  0.29480000000000001          7538.8280017101533
  0.29564999999999997          12543.598852179537
  0.29649999999999999          17241.270573875292
  0.29735000000000000          21611.650324134149
  0.29819999999999997          25638.169722954124
  0.29904999999999998          29307.989697120778
  0.29990000000000000          32612.197712731526
  0.30074999999999996          35544.982614045912
  0.30159999999999998          38104.481151610104
  0.30245000000000000          40292.020785754539
  0.30329999999999996          42112.028777581210
  0.30414999999999998          43571.781860611540
  0.30499999999999999          44681.365435494998
  0.30584999999999996          45453.311987505178
  0.30669999999999997          45902.186173523922
  0.30754999999999999          46044.645372374638
  0.30840000000000001          45898.760784043145
  0.30924999999999997          45483.952134007428
  0.31009999999999999          44820.784509739155
  0.31095000000000000          43930.595503403201
  0.31179999999999997          42835.284421799370
  0.31264999999999998          41557.050533060479
  0.31350000000000000          40118.178517691522
  0.31434999999999996          38540.858348747111
  0.31519999999999998          36846.815094909711
  0.31605000000000000          35057.192716604193
  0.31689999999999996          33192.312528633694
  0.31774999999999998          31271.650665453548
  0.31859999999999999          29313.599069155694
  0.31944999999999996          27335.457577610552
  0.32029999999999997          25353.302106208448
  0.32114999999999999          23382.078383641710
  0.32199999999999995          21435.370890029455
  0.32284999999999997          19525.686557451525
  0.32369999999999999          17664.036025765745
  0.32455000000000001          15860.041215002908
  0.32539999999999997          14122.115630100210
  0.32624999999999998          12457.226959802118
  0.32710000000000000          10871.068772806937
  0.32794999999999996          9368.0240690840237
  0.32879999999999998          7951.4868324586532
  0.32965000000000000          6623.7186936495564
  0.33049999999999996          5385.9861590334040
  0.33134999999999998          4238.8036904761866
  0.33220000000000000          3181.7595822012436
  0.33304999999999996          2213.7352677420727
  0.33389999999999997          1333.0168308716084
  0.33474999999999999          537.21792970783247
  0.33559999999999995         -176.58931443027728
  0.33644999999999997         -811.74132007531500
  0.33729999999999999         -1372.0378111679670
  0.33815000000000001         -1861.4810184558787
  0.33899999999999997         -2284.3405237714915
  0.33984999999999999         -2644.8864411292261
  0.34070000000000000         -2947.6033706733847
  0.34154999999999996         -3196.9163622173296
  0.34239999999999998         -3397.2569788353067
  0.34325000000000000         -3552.8800963976637
  0.34409999999999996         -3667.9584404354650
  0.34494999999999998         -3746.6041638469405
  0.34580000000000000         -3792.6312553010425
  0.34664999999999996         -3809.7922995513313
  0.34749999999999998         -3801.6559506904323
  0.34834999999999999         -3771.4924814553528
  0.34919999999999995         -3722.3800487172321
  0.35004999999999997         -3657.2341538930996
  0.35089999999999999         -3578.6967979858218
  0.35174999999999995         -3489.1670498960980
  0.35259999999999997         -3390.7719497965700
  0.35344999999999999         -3285.4325494136433
  0.35430000000000000         -3174.9199602180006
  0.35514999999999997         -3060.6616410489914
  0.35599999999999998         -2944.0465709782115
  0.35685000000000000         -2826.2239417897272
  0.35769999999999996         -2708.2243880794472
  0.35854999999999998         -2590.9536596460016
  0.35940000000000000         -2475.1747638967822
  0.36024999999999996         -2361.5440703070376
  0.36109999999999998         -2250.5693466311918
  0.36194999999999999         -2142.6526707456237
  0.36279999999999996         -2038.0293949261300
  0.36364999999999997         -1936.8370557237322
  0.36449999999999999         -1839.1343791699310
  0.36534999999999995         -1744.9234956591231
  0.36619999999999997         -1654.1617194303656
  0.36704999999999999         -1566.8540553967264
  0.36790000000000000         -1482.9643722766734
  0.36874999999999997         -1402.5334234865088
  0.36959999999999998         -1325.5687336228220
  0.37045000000000000         -1252.0638483690741
  0.37129999999999996         -1181.9446609995118
  0.37214999999999998         -1115.1210384017722
  0.37300000000000000         -1051.4215211004114
  0.37384999999999996         -990.66809918715114