 -0.12000000000000000          0.0000000000000000
 -0.11914999999999999          0.0000000000000000
 -0.11830000000000000          0.0000000000000000
 -0.11745000000000000          0.0000000000000000
 -0.11660000000000000          0.0000000000000000
 -0.11574999999999999          0.0000000000000000
 -0.11490000000000000          1.6971349065660732E-021
 -0.11405000000000000          2.0318882954779969E-020
 -0.11320000000000000          1.2110329111142717E-019
 -0.11234999999999999          4.6829658864879227E-019
 -0.11150000000000000          1.2633196667475336E-018
 -0.11065000000000000          2.2534083551032611E-018
 -0.10979999999999999          1.4010395435595567E-018
 -0.10894999999999999         -7.2202972175928423E-018
 -0.10810000000000000         -3.4653787509109928E-017
 -0.10725000000000000         -9.3101457598062272E-017
 -0.10639999999999999         -1.8033495607200397E-016
 -0.10554999999999999         -2.4814004284553554E-016
 -0.10470000000000000         -1.6159108453218365E-016
 -0.10385000000000000          3.2177430804016586E-016
 -0.10299999999999999          1.4967441491965761E-015
 -0.10214999999999999          3.5107479434604994E-015
 -0.10130000000000000          5.9847508877584319E-015
 -0.10045000000000000          7.5277562926592396E-015
  -9.9599999999999994E-002     5.4004954084469823E-015
  -9.8750000000000004E-002    -4.2177308616734854E-015
  -9.7900000000000001E-002    -2.4822987394612257E-014
  -9.7049999999999997E-002    -5.6719560203232664E-014
  -9.6199999999999994E-002    -9.3026204385240511E-014
  -9.5349999999999990E-002    -1.1597249465606856E-013
  -9.4500000000000001E-002    -9.6103282502723704E-014
  -9.3649999999999997E-002     2.3081809639380238E-015
  -9.2799999999999994E-002     2.0702182744583540E-013
  -9.1950000000000004E-002     5.1490657744677654E-013
  -9.1100000000000000E-002     8.6536839822745450E-013
  -9.0249999999999997E-002     1.1211452669526422E-012
  -8.9399999999999993E-002     1.0721543000151220E-012
  -8.8549999999999990E-002     4.7813202341875173E-013
  -8.7700000000000000E-002    -8.4189658532565623E-013
  -8.6849999999999997E-002    -2.8820103488425622E-012
  -8.5999999999999993E-002    -5.3158179029455807E-012
  -8.5150000000000003E-002    -7.4124874840154615E-012
  -8.4300000000000000E-002    -8.0706101976527613E-012
  -8.3449999999999996E-002    -6.0284113398308578E-012
  -8.2600000000000007E-002    -2.6859911791728013E-013
  -8.1749999999999989E-002     9.4336004329442086E-012
  -8.0900000000000000E-002     2.1956105042548343E-011
  -8.0049999999999996E-002     3.4480438556278530E-011
  -7.9199999999999993E-002     4.2586064454240069E-011
  -7.8350000000000003E-002     4.0977119599912708E-011
  -7.7499999999999999E-002     2.4885388037986891E-011
  -7.6649999999999996E-002    -8.0321032268315947E-012
  -7.5800000000000006E-002    -5.5738504571816705E-011
  -7.4949999999999989E-002    -1.1045000584634089E-010
  -7.4099999999999999E-002    -1.5856445855342810E-010
  -7.3249999999999996E-002    -1.8243935762595195E-010
  -7.2399999999999992E-002    -1.6417362161935831E-010
  -7.1550000000000002E-002    -9.0952242982703501E-011
  -7.0699999999999999E-002     3.9142902152976335E-011
  -6.9849999999999995E-002     2.1247727871035990E-010
  -6.9000000000000006E-002     3.9816209790860234E-010
  -6.8149999999999988E-002     5.5077927134391154E-010
  -6.7299999999999999E-002     6.1812893442558709E-010
  -6.6449999999999995E-002     5.5328780802389656E-010
  -6.5599999999999992E-002     3.2881440680690114E-010
  -6.4750000000000002E-002    -5.0260865304826335E-011
  -6.3899999999999998E-002    -5.3854484854589835E-010
  -6.3049999999999995E-002    -1.0509099693907886E-009
  -6.2199999999999998E-002    -1.4735241993613134E-009
  -6.1350000000000002E-002    -1.6847687049835599E-009
  -6.0499999999999998E-002    -1.5827833946294062E-009
  -5.9650000000000002E-002    -1.1139766936507371E-009
  -5.8799999999999998E-002    -2.9553185471648468E-010
  -5.7950000000000002E-002     7.7475103077219396E-010
  -5.7099999999999998E-002     1.9258082942044176E-009
  -5.6249999999999994E-002     2.9387586820178378E-009
  -5.5400000000000005E-002     3.5869735654845224E-009
  -5.4550000000000001E-002     3.6832454885683460E-009
  -5.3699999999999998E-002     3.1239155848790064E-009
  -5.2849999999999994E-002     1.9195058704734448E-009
  -5.2000000000000005E-002     2.0368914190857274E-010
  -5.1150000000000001E-002    -1.7830356515858123E-009
  -5.0299999999999997E-002    -3.7327967236562099E-009
  -4.9449999999999994E-002    -5.3251480519664736E-009
  -4.8600000000000004E-002    -6.2854810908874144E-009
  -4.7750000000000001E-002    -6.4341669216951584E-009
  -4.6899999999999997E-002    -5.7156644282597160E-009
  -4.6049999999999994E-002    -4.2017628641717329E-009
  -4.5200000000000004E-002    -2.0697058175426369E-009
  -4.4350000000000001E-002     4.3766484971201574E-010
  -4.3499999999999997E-002     3.0581271713719192E-009
  -4.2649999999999993E-002     5.5498566531897663E-009
  -4.1800000000000004E-002     7.7145340272289629E-009
  -4.0950000000000000E-002     9.3992529749640370E-009
  -4.0099999999999997E-002     1.0480003463897060E-008
  -3.9249999999999993E-002     1.0836251878440708E-008
  -3.8400000000000004E-002     1.0330233025430717E-008
  -3.7550000000000000E-002     8.8044821690194296E-009
  -3.6699999999999997E-002     6.1064997309444113E-009
  -3.5850000000000007E-002     2.1412560789717789E-009
  -3.5000000000000003E-002    -3.0575598216584516E-009
  -3.4150000000000000E-002    -9.2552209181497506E-009
  -3.3299999999999996E-002    -1.5965103374740737E-008
  -3.2450000000000007E-002    -2.2440944141352257E-008
  -3.1600000000000003E-002    -2.7727129501494491E-008
  -3.0750000000000000E-002    -3.0770071454332971E-008
  -2.9899999999999996E-002    -3.0579681742234750E-008
  -2.9050000000000006E-002    -2.6416595725872624E-008
  -2.8200000000000003E-002    -1.7971775665459025E-008
  -2.7349999999999999E-002    -5.5025663119114211E-009
  -2.6499999999999996E-002     1.0105842380278236E-008
  -2.5650000000000006E-002     2.7372863801894574E-008
  -2.4800000000000003E-002     4.4352353331794296E-008
  -2.3949999999999999E-002     5.8846350185579534E-008
  -2.3099999999999996E-002     6.8674698471274799E-008
  -2.2250000000000006E-002     7.1963113344551874E-008
  -2.1400000000000002E-002     6.7409972294182441E-008
  -2.0549999999999999E-002     5.4495739055334326E-008
  -1.9699999999999995E-002     3.3608669005691556E-008
  -1.8850000000000006E-002     6.0724666572837641E-009
  -1.8000000000000002E-002    -2.5925842389563888E-008
  -1.7149999999999999E-002    -5.9498873944382760E-008
  -1.6299999999999995E-002    -9.1296310371075432E-008
  -1.5450000000000005E-002    -1.1779622738797008E-007
  -1.4600000000000002E-002    -1.3562853631067068E-007
  -1.3749999999999998E-002    -1.4190836129155320E-007
  -1.2899999999999995E-002    -1.3455757717981518E-007
  -1.2050000000000005E-002    -1.1259128420531990E-007
  -1.1200000000000002E-002    -7.6344146981942425E-008
  -1.0349999999999998E-002    -2.7609362000210645E-008
  -9.5000000000000084E-003     3.0337983015260835E-008
  -8.6500000000000049E-003     9.2858599782312469E-008
  -7.8000000000000014E-003     1.5422543366316113E-007
  -6.9499999999999978E-003     2.0806214642227774E-007
  -6.1000000000000082E-003     2.4792640804883882E-007
  -5.2500000000000047E-003     2.6799684512271444E-007
  -4.4000000000000011E-003     2.6379732159072643E-007
  -3.5499999999999976E-003     2.3287208023731308E-007
  -2.7000000000000079E-003     1.7531552081247108E-007
  -1.8500000000000044E-003     9.4063782634827309E-008
  -1.0000000000000009E-003    -5.1231667949539526E-009
  -1.4999999999999736E-004    -1.1402432312451297E-007
   6.9999999999999230E-004    -2.2265273922566637E-007
   1.5499999999999958E-003    -3.2021879417977788E-007
   2.3999999999999994E-003    -3.9625270036503993E-007
   3.2500000000000029E-003    -4.4174711033990992E-007
   4.0999999999999925E-003    -4.5017413294626214E-007
   4.9499999999999961E-003    -4.1824782870535889E-007
   5.7999999999999996E-003    -3.4634369431938735E-007
   6.6499999999999893E-003    -2.3853819554019630E-007
   7.5000000000000067E-003    -1.0228733270537904E-007
   8.3499999999999963E-003     5.2192702017193618E-008
   9.1999999999999860E-003     2.1275350353227836E-007
   1.0050000000000003E-002     3.6625828340900602E-007
   1.0899999999999993E-002     4.9956348939612752E-007
   1.1750000000000010E-002     6.0048559357525994E-007
   1.2600000000000000E-002     6.5872348687890024E-007
   1.3449999999999990E-002     6.6671783032905165E-007
   1.4300000000000007E-002     6.2042100411832000E-007
   1.5149999999999997E-002     5.1992689807163553E-007
   1.5999999999999986E-002     3.6988184752823659E-007
   1.6850000000000004E-002     1.7957118753068793E-007
   1.7699999999999994E-002    -3.7420027217038851E-008
   1.8549999999999983E-002    -2.6404443358705017E-007
   1.9400000000000001E-002    -4.8113161411462532E-007
   2.0249999999999990E-002    -6.6914519070724371E-007
   2.1100000000000008E-002    -8.1017886318099821E-007
   2.1949999999999997E-002    -8.8993914800586715E-007
   2.2799999999999987E-002    -8.9943200956243230E-007
   2.3650000000000004E-002    -8.3609152980795795E-007
   2.4499999999999994E-002    -7.0416881697827724E-007
   2.5349999999999984E-002    -5.1431420029319214E-007
   2.6200000000000001E-002    -2.8241987471451478E-007
   2.7049999999999991E-002    -2.7905683217299507E-008
   2.7900000000000008E-002     2.2829330897469614E-007
   2.8749999999999998E-002     4.6575697008806589E-007
   2.9599999999999987E-002     6.6638169581805116E-007
   3.0450000000000005E-002     8.1578274663417439E-007
   3.1299999999999994E-002     9.0421673283357908E-007
   3.2149999999999984E-002     9.2702816186864177E-007
   3.3000000000000002E-002     8.8467866219407735E-007
   3.3849999999999991E-002     7.8243708194548725E-007
   3.4700000000000009E-002     6.2979881932070398E-007
   3.5549999999999998E-002     4.3967622808236342E-007
   3.6399999999999988E-002     2.2738085093490319E-007
   3.7250000000000005E-002     9.4164046443022216E-009
   3.8099999999999995E-002    -1.9787307152433206E-007
   3.8949999999999985E-002    -3.7971269781585011E-007
   3.9800000000000002E-002    -5.2422615131234858E-007
   4.0649999999999992E-002    -6.2351617824406669E-007
   4.1500000000000009E-002    -6.7432952248905532E-007
   4.2349999999999999E-002    -6.7818235433452811E-007
   4.3199999999999988E-002    -6.4090519072133417E-007
   4.4050000000000006E-002    -5.7166404775333362E-007
   4.4899999999999995E-002    -4.8161062471092828E-007
   4.5749999999999985E-002    -3.8237780800881042E-007
   4.6600000000000003E-002    -2.8465328003273744E-007
   4.7449999999999992E-002    -1.9703266458594363E-007
   4.8299999999999982E-002    -1.2528099700913987E-007
   4.9149999999999999E-002    -7.2042343944935005E-008
   4.9999999999999989E-002    -3.6954843354621701E-008
   5.0850000000000006E-002    -1.7073141452290459E-008
   5.1699999999999996E-002    -7.4831643499405491E-009
   5.2549999999999986E-002    -2.0103555008558030E-009
   5.3400000000000003E-002     6.0409109167297038E-009
   5.4249999999999993E-002     2.3142889864243699E-008
   5.5099999999999982E-002     5.4800979120183750E-008
   5.5950000000000000E-002     1.0482441264095054E-007
   5.6799999999999989E-002     1.7465508089645096E-007
   5.7650000000000007E-002     2.6283607306489303E-007
   5.8499999999999996E-002     3.6473161390751469E-007
   5.9349999999999986E-002     4.7260979391652262E-007
   6.0200000000000004E-002     5.7616191435481024E-007
   6.1049999999999993E-002     6.6345741076084222E-007
   6.1899999999999983E-002     7.2224145758000240E-007
   6.2750000000000000E-002     7.4139760825297710E-007
   6.3599999999999990E-002     7.1233783943776969E-007
   6.4450000000000007E-002     6.3008237422784236E-007
   6.5299999999999997E-002     4.9383617825416821E-007
   6.6149999999999987E-002     3.0696644440394876E-007
   6.7000000000000004E-002     7.6399625173365475E-008
   6.7849999999999994E-002    -1.8844036959531352E-007
   6.8699999999999983E-002    -4.7695372736953952E-007
   6.9550000000000001E-002    -7.7873269108765325E-007
   7.0399999999999990E-002    -1.0847950186109036E-006
   7.1249999999999980E-002    -1.3885747225690926E-006
   7.2099999999999997E-002    -1.6866572961628264E-006
   7.2949999999999987E-002    -1.9793027824004949E-006
   7.3800000000000004E-002    -2.2708367182639896E-006
   7.4649999999999994E-002    -2.5699830329962270E-006
   7.5499999999999984E-002    -2.8901601663786491E-006
   7.6350000000000001E-002    -3.2497053982130367E-006
   7.7199999999999991E-002    -3.6719422251060542E-006
   7.8049999999999981E-002    -4.1850012184801488E-006
   7.8899999999999998E-002    -4.8213372037990674E-006
   7.9749999999999988E-002    -5.6169670889811553E-006
   8.0600000000000005E-002    -6.6105598523870029E-006
   8.1449999999999995E-002    -7.8426138434203863E-006
   8.2299999999999984E-002    -9.3549639151718061E-006
   8.3150000000000002E-002    -1.1190876558777997E-005
   8.3999999999999991E-002    -1.3395876667680371E-005
   8.4849999999999981E-002    -1.6019329053067092E-005
   8.5699999999999998E-002    -1.9116673815770624E-005
   8.6549999999999988E-002    -2.2751989145265109E-005
   8.7400000000000005E-002    -2.7000604810994011E-005
   8.8249999999999995E-002    -3.1951494314034054E-005
   8.9099999999999985E-002    -3.7709104541311074E-005
   8.9950000000000002E-002    -4.4394746497664182E-005
   9.0799999999999992E-002    -5.2147522826868442E-005
   9.1649999999999981E-002    -6.1124957795873110E-005
   9.2499999999999999E-002    -7.1503748751580685E-005
   9.3349999999999989E-002    -8.3480557916463036E-005
   9.4200000000000006E-002    -9.7273117631798753E-005
   9.5049999999999996E-002    -1.1312161875394007E-004
   9.5899999999999985E-002    -1.3129018677499009E-004
   9.6750000000000003E-002    -1.5206814059509323E-004
   9.7599999999999992E-002    -1.7577106656732906E-004
   9.8449999999999982E-002    -2.0274158770142755E-004
   9.9299999999999999E-002    -2.3334957551987234E-004
  0.10014999999999999         -2.6799305421242579E-004
  0.10099999999999998         -3.0709853644767210E-004
  0.10185000000000000         -3.5112246565674042E-004
  0.10269999999999999         -4.0055269402590953E-004
  0.10355000000000000         -4.5591066989710683E-004
  0.10439999999999999         -5.1775295729011828E-004
  0.10524999999999998         -5.8667301332748160E-004
  0.10610000000000000         -6.6330228825960060E-004
  0.10694999999999999         -7.4830822058170854E-004
  0.10779999999999998         -8.4239279703843370E-004
  0.10865000000000000         -9.4628903194687527E-004
  0.10949999999999999         -1.0607549562676923E-003
  0.11035000000000000         -1.1865690717678490E-003
  0.11119999999999999         -1.3245245813561075E-003
  0.11204999999999998         -1.4754225580785227E-003
  0.11290000000000000         -1.6400655107669821E-003
  0.11374999999999999         -1.8192501553084437E-003
  0.11459999999999998         -2.0137586648597437E-003
  0.11545000000000000         -2.2243481549847630E-003
  0.11629999999999999         -2.4517394287622719E-003
  0.11715000000000000         -2.6966046434175124E-003
  0.11799999999999999         -2.9595493812437216E-003
  0.11884999999999998         -3.2410983375643176E-003
  0.11970000000000000         -3.5416754830240203E-003
  0.12054999999999999         -3.8615874519244264E-003
  0.12139999999999998         -4.2010035157155571E-003
  0.12225000000000000         -4.5599380027602681E-003
  0.12309999999999999         -4.9382263474063671E-003
  0.12395000000000000         -5.3355016163686587E-003
  0.12479999999999999         -5.7511714243380667E-003
  0.12564999999999998         -6.1843904947283231E-003
  0.12650000000000000         -6.6340351065747290E-003
  0.12734999999999999         -7.0986742349371341E-003
  0.12819999999999998         -7.5765352031646428E-003
  0.12905000000000000         -8.0654831295964777E-003
  0.12989999999999999         -8.5629920168555345E-003
  0.13074999999999998         -9.0661214131765866E-003
  0.13159999999999999         -9.5714977909361395E-003
  0.13245000000000001         -1.0075296170737829E-002
  0.13329999999999997         -1.0573222802815358E-002
  0.13414999999999999         -1.1060508071801107E-002
  0.13500000000000001         -1.1531896346745809E-002
  0.13584999999999997         -1.1981648903510150E-002
  0.13669999999999999         -1.2403542267979904E-002
  0.13755000000000001         -1.2790892032293303E-002
  0.13839999999999997         -1.3136570195990892E-002
  0.13924999999999998         -1.3433046791316910E-002
  0.14010000000000000         -1.3672417898476881E-002
  0.14094999999999996         -1.3846467177688211E-002
  0.14179999999999998         -1.3946725795110764E-002
  0.14265000000000000         -1.3964523986725673E-002
  0.14350000000000002         -1.3891076195289639E-002
  0.14434999999999998         -1.3717563187952952E-002
  0.14520000000000000         -1.3435237219754946E-002
  0.14605000000000001         -1.3035505564958192E-002
  0.14689999999999998         -1.2510067391989142E-002
  0.14774999999999999         -1.1851045842457494E-002
  0.14860000000000001         -1.1051100150375767E-002
  0.14944999999999997         -1.0103581032735679E-002
  0.15029999999999999         -9.0026772402866731E-003
  0.15115000000000001         -7.7435485228332188E-003
  0.15199999999999997         -6.3224933503562043E-003
  0.15284999999999999         -4.7370804450060627E-003
  0.15370000000000000         -2.9862835754377957E-003
  0.15454999999999997         -1.0706029746844928E-003
  0.15539999999999998          1.0078044297694726E-003
  0.15625000000000000          3.2450151526389232E-003
  0.15709999999999996          5.6352383155238378E-003
  0.15794999999999998          8.1707097943755531E-003
  0.15880000000000000          1.0841645354422908E-002
  0.15965000000000001          1.3636201030871455E-002
  0.16049999999999998          1.6540424390956598E-002
  0.16134999999999999          1.9538291732913497E-002
  0.16220000000000001          2.2611733044885209E-002
  0.16304999999999997          2.5740697707109080E-002
  0.16389999999999999          2.8903264912664837E-002
  0.16475000000000001          3.2075758414364171E-002
  0.16559999999999997          3.5232917664340224E-002
  0.16644999999999999          3.8348058557811301E-002
  0.16730000000000000          4.1393274690208606E-002
  0.16814999999999997          4.4339693186241660E-002
  0.16899999999999998          4.7157746247145936E-002
  0.16985000000000000          4.9817459342868034E-002
  0.17069999999999996          5.2288770913853880E-002
  0.17154999999999998          5.4541875033862958E-002
  0.17240000000000000          5.6547528565750418E-002
  0.17325000000000002          5.8277438729787870E-002
  0.17409999999999998          5.9704625300456129E-002
  0.17494999999999999          6.0803757370525437E-002
  0.17580000000000001          6.1551529667345346E-002
  0.17664999999999997          6.1926984820535443E-002
  0.17749999999999999          6.1911843797758132E-002
  0.17835000000000001          6.1490811044997228E-002
  0.17919999999999997          6.0651860294501925E-002
  0.18004999999999999          5.9386485991645525E-002
  0.18090000000000001          5.7689900425414796E-002
  0.18174999999999997          5.5561251770778620E-002
  0.18259999999999998          5.3003732218520588E-002
  0.18345000000000000          5.0024677266972011E-002
  0.18429999999999996          4.6635615670229093E-002
  0.18514999999999998          4.2852236962666795E-002
  0.18600000000000000          3.8694342292643569E-002
  0.18684999999999996          3.4185705410981614E-002
  0.18769999999999998          2.9353938030333347E-002
  0.18855000000000000          2.4230255886254957E-002
  0.18940000000000001          1.8849226491833966E-002
  0.19024999999999997          1.3248464053981689E-002
  0.19109999999999999          7.4682568570798424E-003
  0.19195000000000001          1.5512230873734626E-003
  0.19279999999999997         -4.4581503683104083E-003
  0.19364999999999999         -1.0513907312293663E-002
  0.19450000000000001         -1.6569122940760142E-002
  0.19534999999999997         -2.2576411666976673E-002
  0.19619999999999999         -2.8488398876776354E-002
  0.19705000000000000         -3.4258240750840427E-002
  0.19789999999999996         -3.9840139698117047E-002
  0.19874999999999998         -4.5189830058043126E-002
  0.19960000000000000         -5.0265041738805569E-002
  0.20044999999999996         -5.5025960292210026E-002
  0.20129999999999998         -5.9435590883789635E-002
  0.20215000000000000         -6.3460156208556315E-002
  0.20300000000000001         -6.7069483039209232E-002
  0.20384999999999998         -7.0237285611246147E-002
  0.20469999999999999         -7.2941405444548191E-002
  0.20555000000000001         -7.5164077461786494E-002
  0.20639999999999997         -7.6892038740660085E-002
  0.20724999999999999         -7.8116611935446403E-002
  0.20810000000000001         -7.8833766187408019E-002
  0.20894999999999997         -7.9044115379778762E-002
  0.20979999999999999         -7.8752847081627178E-002
  0.21065000000000000         -7.7969589533240624E-002
  0.21149999999999997         -7.6708252061630178E-002
  0.21234999999999998         -7.4986769819618243E-002
  0.21320000000000000         -7.2826865895894252E-002
  0.21404999999999996         -7.0253797504156251E-002
  0.21489999999999998         -6.7295985806322636E-002
  0.21575000000000000         -6.3984683153918823E-002
  0.21659999999999996         -6.0353614792274635E-002
  0.21744999999999998         -5.6438540055607597E-002
  0.21829999999999999         -5.2276836964704386E-002
  0.21915000000000001         -4.7907071121024748E-002
  0.21999999999999997         -4.3368550153617964E-002
  0.22084999999999999         -3.8700929838468921E-002
  0.22170000000000001         -3.3943782934443986E-002
  0.22254999999999997         -2.9136172584113017E-002
  0.22339999999999999         -2.4316304796243287E-002
  0.22425000000000000         -1.9521118048802823E-002
  0.22509999999999997         -1.4786017758170919E-002
  0.22594999999999998         -1.0144548593787561E-002
  0.22680000000000000         -5.6281561413138760E-003
  0.22764999999999996         -1.2659172264230705E-003
  0.22849999999999998          2.9156508270048315E-003
  0.22935000000000000          6.8927535544655531E-003
  0.23019999999999996          1.0644446250233815E-002
  0.23104999999999998          1.4152697815006984E-002
  0.23190000000000000          1.7402476874137013E-002
  0.23275000000000001          2.0381774549338115E-002
  0.23359999999999997          2.3081559064166660E-002
  0.23444999999999999          2.5495742682946278E-002
  0.23530000000000001          2.7621074768078926E-002
  0.23614999999999997          2.9457042358656531E-002
  0.23699999999999999          3.1005681409508098E-002
  0.23785000000000001          3.2271443518964119E-002
  0.23869999999999997          3.3261024300878704E-002
  0.23954999999999999          3.3983175864858640E-002
  0.24040000000000000          3.4448478649944332E-002
  0.24124999999999996          3.4669151769238959E-002
  0.24209999999999998          3.4658836244814861E-002
  0.24295000000000000          3.4432403063944024E-002
  0.24379999999999996          3.4005690887690641E-002
  0.24464999999999998          3.3395313081063902E-002
  0.24550000000000000          3.2618395153167758E-002
  0.24634999999999996          3.1692397435757101E-002
  0.24719999999999998          3.0634889967520822E-002
  0.24804999999999999          2.9463356403135191E-002
  0.24890000000000001          2.8195038010744168E-002
  0.24974999999999997          2.6846750605193107E-002
  0.25059999999999999          2.5434771676043529E-002
  0.25145000000000001          2.3974727629435030E-002
  0.25229999999999997          2.2481499895779983E-002
  0.25314999999999999          2.0969110526988702E-002
  0.25400000000000000          1.9450664192592608E-002
  0.25484999999999997          1.7938283893416965E-002
  0.25569999999999998          1.6443044911711027E-002
  0.25655000000000000          1.4974962509862971E-002
  0.25739999999999996          1.3542953339193248E-002
  0.25824999999999998          1.2154838105243593E-002
  0.25910000000000000          1.0817352261522225E-002
  0.25994999999999996          9.5361663356415046E-003
  0.26079999999999998          8.3159496242249907E-003
  0.26164999999999999          7.1603993278397558E-003
  0.26249999999999996          6.0723008028702096E-003
  0.26334999999999997          5.0535846351588923E-003
  0.26419999999999999          4.1053760729504504E-003
  0.26505000000000001          3.2280593491342182E-003
  0.26589999999999997          2.4213372856502001E-003
  0.26674999999999999          1.6842804248860964E-003
  0.26760000000000000          1.0153942446844129E-003
  0.26844999999999997          4.1269443282023464E-004
  0.26929999999999998         -1.2622362651672409E-004
  0.27015000000000000         -6.0410841958817574E-004
  0.27099999999999996         -1.0239729811536307E-003
  0.27184999999999998         -1.3890304284119208E-003
  0.27270000000000000         -1.7026342805915172E-003
  0.27354999999999996         -1.9682234320064977E-003
  0.27439999999999998         -2.1892734205360737E-003
  0.27524999999999999         -2.3692667625676051E-003
  0.27609999999999996         -2.5116648831311995E-003
  0.27694999999999997         -2.6198833084411770E-003
  0.27779999999999999         -2.6972721844939658E-003
  0.27865000000000001         -2.7470823760593717E-003
  0.27949999999999997         -2.7724400373185226E-003
  0.28034999999999999         -2.7763285434392326E-003
  0.28120000000000001         -2.7615540489354827E-003
  0.28204999999999997         -2.7307289553363525E-003
  0.28289999999999998         -2.6862660798981494E-003
  0.28375000000000000         -2.6303780816728504E-003
  0.28459999999999996         -2.5650812460823102E-003
  0.28544999999999998         -2.4922016548259880E-003
  0.28630000000000000         -2.4133914818970361E-003
  0.28714999999999996         -2.3301388834607180E-003
  0.28799999999999998         -2.2437810287603273E-003
  0.28885000000000000         -2.1555048483579884E-003
  0.28969999999999996         -2.0663493500138355E-003
  0.29054999999999997         -1.9772079569792093E-003
  0.29139999999999999         -1.8888268499577920E-003
  0.29224999999999995         -1.8018149521384535E-003
  0.29309999999999997         -1.7166520725711608E-003
  0.29394999999999999         -1.6337050995724081E-003
  0.29480000000000001         -1.5532463734130707E-003
  0.29564999999999997         -1.4754783832246702E-003
  0.29649999999999999         -1.4005531937030140E-003
  0.29735000000000000         -1.3285811013831542E-003
  0.29819999999999997         -1.2596402201656717E-003
  0.29904999999999998         -1.1937791405647600E-003
  0.29990000000000000         -1.1310166835372352E-003
  0.30074999999999996         -1.0713375048977639E-003
  0.30159999999999998         -1.0146895285315280E-003
  0.30245000000000000         -9.6098639804146138E-004
  0.30329999999999996         -9.1011671142487050E-004
  0.30414999999999998         -8.6195209512309411E-004
  0.30499999999999999         -8.1635629113438446E-004
  0.30584999999999996         -7.7319548431722452E-004
  0.30669999999999997         -7.3234381336405871E-004
  0.30754999999999999         -6.9368779136803492E-004
  0.30840000000000001         -6.5712322107573553E-004
  0.30924999999999997         -6.2255253128852940E-004
  0.31009999999999999         -5.8988287765223790E-004
  0.31095000000000000         -5.5902406236884043E-004
  0.31179999999999997         -5.2988600290736210E-004
  0.31264999999999998         -5.0238182803628688E-004
  0.31350000000000000         -4.7643083876557774E-004
  0.31434999999999996         -4.5195996804823580E-004
  0.31519999999999998         -4.2890585906623670E-004
  0.31605000000000000         -4.0721169631937704E-004
  0.31689999999999996         -3.8682550661871739E-004
  0.31774999999999998         -3.6769873651332783E-004
  0.31859999999999999         -3.4978347458177676E-004
  0.31944999999999996         -3.3303166242450025E-004
  0.32029999999999997         -3.1739592000610883E-004
  0.32114999999999999         -3.0283149579680789E-004
  0.32199999999999995         -2.8929634565179243E-004
  0.32284999999999997         -2.7675088896346038E-004
  0.32369999999999999         -2.6515961668615673E-004
  0.32455000000000001         -2.5448704654118797E-004
  0.32539999999999997         -2.4469289511431396E-004
  0.32624999999999998         -2.3573046119110700E-004
  0.32710000000000000         -2.2754494857929494E-004
  0.32794999999999996         -2.2007621193740481E-004
  0.32879999999999998         -2.1326285386556910E-004
  0.32965000000000000         -2.0704840085634892E-004
  0.33049999999999996         -2.0138509768146437E-004
  0.33134999999999998         -1.9623471230919366E-004
  0.33220000000000000         -1.9156849738152001E-004
  0.33304999999999996         -1.8736091140873846E-004
  0.33389999999999997         -1.8358192706621832E-004
  0.33474999999999999         -1.8019064205502635E-004
  0.33559999999999995         -1.7712919213086283E-004
  0.33644999999999997         -1.7431925752332030E-004
  0.33729999999999999         -1.7166690571019638E-004
  0.33815000000000001         -1.6907077579328270E-004
  0.33899999999999997         -1.6643194084832349E-004
  0.33984999999999999         -1.6366403462500663E-004
  0.34070000000000000         -1.6070151510720246E-004
  0.34154999999999996         -1.5750383864335103E-004
  0.34239999999999998         -1.5405234038143694E-004
  0.34325000000000000         -1.5034360119413337E-004