 -0.12000000000000000          0.0000000000000000
 -0.11914999999999999          2.7667314595744574E-005
 -0.11830000000000000          3.6404278749389970E-005
 -0.11745000000000000          1.6227040710451254E-004
 -0.11660000000000000          9.4428344646140579E-004
 -0.11574999999999999          3.1587828489667339E-003
 -0.11490000000000000          7.0891728576402821E-003
 -0.11405000000000000          1.1485863977415666E-002
 -0.11320000000000000          1.2896798260028085E-002
 -0.11234999999999999          6.1647075240664779E-003
 -0.11150000000000000         -1.3489615811225833E-002
 -0.11065000000000000         -4.7181275731146353E-002
 -0.10979999999999999         -8.9151590357704702E-002
 -0.10894999999999999        -0.12543105207538954
 -0.10810000000000000        -0.13591988431444305
 -0.10725000000000000        -0.10031637388145000
 -0.10639999999999999         -6.6592507010348016E-003
 -0.10554999999999999         0.14032002022278908
 -0.10470000000000000         0.31457521324521381
 -0.10385000000000000         0.47079578931780153
 -0.10299999999999999         0.55411014849379947
 -0.10214999999999999         0.51567640147459592
 -0.10130000000000000         0.32982856765362023
 -0.10045000000000000          7.1144436802968881E-003
  -9.9599999999999994E-002   -0.40185623643761315
  -9.8750000000000004E-002   -0.81432100203965574
  -9.7900000000000001E-002    -1.1338965789736732
  -9.7049999999999997E-002    -1.2749563553389962
  -9.6199999999999994E-002    -1.1858209702422839
  -9.5349999999999990E-002   -0.86375436747324719
  -9.4500000000000001E-002   -0.35714879390428095
  -9.3649999999999997E-002    0.24574188775943728
  -9.2799999999999994E-002    0.83797324040328336
  -9.1950000000000004E-002     1.3185160786413919
  -9.1100000000000000E-002     1.6131716141607282
  -9.0249999999999997E-002     1.6864313176515071
  -8.9399999999999993E-002     1.5423629287710601
  -8.8549999999999990E-002     1.2163581368393577
  -8.7700000000000000E-002    0.76224760797738977
  -8.6849999999999997E-002    0.23992563858443020
  -8.5999999999999993E-002   -0.29283447404927715
  -8.5150000000000003E-002   -0.78347522027145045
  -8.4300000000000000E-002    -1.1845378852598849
  -8.3449999999999996E-002    -1.4537658051702529
  -8.2600000000000007E-002    -1.5574448448578817
  -8.1749999999999989E-002    -1.4778482910142590
  -8.0900000000000000E-002    -1.2227187548590213
  -8.0049999999999996E-002   -0.83244187341985421
  -7.9199999999999993E-002   -0.38004541282419418
  -7.8350000000000003E-002     3.9048822728813569E-002
  -7.7499999999999999E-002    0.32707198806234489
  -7.6649999999999996E-002    0.40930744477087866
  -7.5800000000000006E-002    0.25748875397875837
  -7.4949999999999989E-002    -9.6602978706904957E-002
  -7.4099999999999999E-002   -0.56289556147355757
  -7.3249999999999996E-002    -1.0111892609039164
  -7.2399999999999992E-002    -1.3017064857257898
  -7.1550000000000002E-002    -1.3200039532568331
  -7.0699999999999999E-002    -1.0066878209452532
  -6.9849999999999995E-002   -0.37389402282185585
  -6.9000000000000006E-002    0.49551481638351230
  -6.8149999999999988E-002     1.4652300896531651
  -6.7299999999999999E-002     2.3738895589450877
  -6.6449999999999995E-002     3.0670920290565897
  -6.5599999999999992E-002     3.4253097982119600
  -6.4750000000000002E-002     3.3823672105924540
  -6.3899999999999998E-002     2.9323925821612637
  -6.3049999999999995E-002     2.1257897623528375
  -6.2199999999999998E-002     1.0570833659981131
  -6.1350000000000002E-002   -0.15244861871637555
  -6.0499999999999998E-002    -1.3745006920713621
  -5.9650000000000002E-002    -2.4939605486861560
  -5.8799999999999998E-002    -3.4273153526170956
  -5.7950000000000002E-002    -4.1373079092973590
  -5.7099999999999998E-002    -4.6408063484354480
  -5.6249999999999994E-002    -5.0068219130200919
  -5.5400000000000005E-002    -5.3432325762146897
  -5.4550000000000001E-002    -5.7732953698799472
  -5.3699999999999998E-002    -6.4068018784104783
  -5.2849999999999994E-002    -7.3134666745586969
  -5.2000000000000005E-002    -8.5068830705219121
  -5.1150000000000001E-002    -9.9470517237754699
  -5.0299999999999997E-002    -11.561489009945806
  -4.9449999999999994E-002    -13.282524520306106
  -4.8600000000000004E-002    -15.086956537404731
  -4.7750000000000001E-002    -17.028260090706596
  -4.6899999999999997E-002    -19.245923206043106
  -4.6049999999999994E-002    -21.947673299380121
  -4.5200000000000004E-002    -25.366025368047673
  -4.4350000000000001E-002    -29.704328039614861
  -4.3499999999999997E-002    -35.086612031671997
  -4.2649999999999993E-002    -41.533218335488748
  -4.1800000000000004E-002    -48.971223188236955
  -4.0950000000000000E-002    -57.280029182759066
  -4.0099999999999997E-002    -66.364402202435869
  -3.9249999999999993E-002    -76.228238096517487
  -3.8400000000000004E-002    -87.031895443960863
  -3.7550000000000000E-002    -99.112263663773845
  -3.6699999999999997E-002    -112.95506760697101
  -3.5850000000000007E-002    -129.13371881232703
  -3.5000000000000003E-002    -148.22717876195259
  -3.4150000000000000E-002    -170.75302113360917
  -3.3299999999999996E-002    -197.12028297379729
  -3.2450000000000007E-002    -227.63577543619857
  -3.1600000000000003E-002    -262.55024334853971
  -3.0750000000000000E-002    -302.13323891931117
  -2.9899999999999996E-002    -346.76489296395761
  -2.9050000000000006E-002    -396.99783393650375
  -2.8200000000000003E-002    -453.58891363977381
  -2.7349999999999999E-002    -517.48478832743717
  -2.6499999999999996E-002    -589.77631352393666
  -2.5650000000000006E-002    -671.62838145729324
  -2.4800000000000003E-002    -764.22479429892144
  -2.3949999999999999E-002    -868.74289747244495
  -2.3099999999999996E-002    -986.33160600285555
  -2.2250000000000006E-002    -1118.1765050349413
  -2.1400000000000002E-002    -1265.5487084508011
  -2.0549999999999999E-002    -1429.8785189067260
  -1.9699999999999995E-002    -1612.8173228032933
  -1.8850000000000006E-002    -1816.2442003003507
  -1.8000000000000002E-002    -2042.2278327573981
  -1.7149999999999999E-002    -2292.9901673612326
  -1.6299999999999995E-002    -2570.8432979938952
  -1.5450000000000005E-002    -2878.0891183970580
  -1.4600000000000002E-002    -3216.9236108710579
  -1.3749999999999998E-002    -3589.4799043467524
  -1.2899999999999995E-002    -3997.7949045955284
  -1.2050000000000005E-002    -4443.8595193401497
  -1.1200000000000002E-002    -4929.6524306489500
  -1.0349999999999998E-002    -5457.1963211045513
  -9.5000000000000084E-003    -6028.5345657015969
  -8.6500000000000049E-003    -6645.7821370787515
  -7.8000000000000014E-003    -7310.9750706749537
  -6.9499999999999978E-003    -8025.9234777280171
  -6.1000000000000082E-003    -8792.2168471444784
  -5.2500000000000047E-003    -9610.9352411010041
  -4.4000000000000011E-003    -10482.669843567872
  -3.5499999999999976E-003    -11407.437975627630
  -2.7000000000000079E-003    -12384.508686381647
  -1.8500000000000044E-003    -13412.500171340693
  -1.0000000000000009E-003    -14489.334599422429
  -1.4999999999999736E-004    -15612.260231532200
   6.9999999999999230E-004    -16777.767040076800
   1.5499999999999958E-003    -17981.525361292133
   2.3999999999999994E-003    -19218.363087973681
   3.2500000000000029E-003    -20481.989101712901
   4.0999999999999925E-003    -21765.028441135644
   4.9499999999999961E-003    -23058.740596674244
   5.7999999999999996E-003    -24352.893140849475
   6.6499999999999893E-003    -25635.990887075626
   7.5000000000000067E-003    -26895.229731989228
   8.3499999999999963E-003    -28116.431003064961
   9.1999999999999860E-003    -29284.188668991988
   1.0050000000000003E-002    -30382.064779044231
   1.0899999999999993E-002    -31392.433444265494
   1.1750000000000010E-002    -32296.852999073741
   1.2600000000000000E-002    -33075.856108287873
   1.3449999999999990E-002    -33708.715029386396
   1.4300000000000007E-002    -34174.047508250042
   1.5149999999999997E-002    -34449.557862623100
   1.5999999999999986E-002    -34512.552385537245
   1.6850000000000004E-002    -34339.846833230731
   1.7699999999999994E-002    -33908.397868153203
   1.8549999999999983E-002    -33195.588191433562
   1.9400000000000001E-002    -32179.724376851093
   2.0249999999999990E-002    -30839.974085295857
   2.1100000000000008E-002    -29157.084785667845
   2.1949999999999997E-002    -27113.258911792153
   2.2799999999999987E-002    -24692.835092369638
   2.3650000000000004E-002    -21882.237326398023
   2.4499999999999994E-002    -18670.133072338471
   2.5349999999999984E-002    -15048.639987847449
   2.6200000000000001E-002    -11013.098064063193
   2.7049999999999991E-002    -6562.2150179302116
   2.7900000000000008E-002    -1699.5561720027292
   2.8749999999999998E-002     3567.7129046676982
   2.9599999999999987E-002     9227.2443958277472
   3.0450000000000005E-002     15261.496308832529
   3.1299999999999994E-002     21649.078489571348
   3.2149999999999984E-002     28362.428982354344
   3.3000000000000002E-002     35369.676450235478
   3.3849999999999991E-002     42633.649818018697
   3.4700000000000009E-002     50112.113506114911
   3.5549999999999998E-002     57757.692166974011
   3.6399999999999988E-002     65518.849018588859
   3.7250000000000005E-002     73338.516379778812
   3.8099999999999995E-002     81156.517146837010
   3.8949999999999985E-002     88908.773295491541
   3.9800000000000002E-002     96527.943673942427
   4.0649999999999992E-002     103944.23897490547
   4.1500000000000009E-002     111086.17798598128
   4.2349999999999999E-002     117881.43194674507
   4.3199999999999988E-002     124255.93284261382
   4.4050000000000006E-002     130136.98056192539
   4.4899999999999995E-002     135451.53796795625
   4.5749999999999985E-002     140129.91922787775
   4.6600000000000003E-002     144103.57844674584
   4.7449999999999992E-002     147308.86048325145
   4.8299999999999982E-002     149686.05714441760
   4.9149999999999999E-002     151181.14668477475
   4.9999999999999989E-002     151746.26776439018
   5.0850000000000006E-002     151340.28303340141
   5.1699999999999996E-002     149929.75579719490
   5.2549999999999986E-002     147489.57253795868
   5.3400000000000003E-002     144002.51748122927
   5.4249999999999993E-002     139461.40756414895
   5.5099999999999982E-002     133867.56352698812
   5.5950000000000000E-002     127233.04028102543
   5.6799999999999989E-002     119580.04884141621
   5.7650000000000007E-002     110939.96873906349
   5.8499999999999996E-002     101355.22051418271
   5.9349999999999986E-002     90877.565130595409
   6.0200000000000004E-002     79568.541618225107
   6.1049999999999993E-002     67498.223476503146
   6.1899999999999983E-002     54744.733439185868
   6.2750000000000000E-002     41394.480181191917
   6.3599999999999990E-002     27540.486336194423
   6.4450000000000007E-002     13281.866176206304
   6.5299999999999997E-002    -1276.9106622776194
   6.6149999999999987E-002    -16027.642108422744
   6.7000000000000004E-002    -30858.905432315227
   6.7849999999999994E-002    -45656.542483502657
   6.8699999999999983E-002    -60306.526492479054
   6.9550000000000001E-002    -74694.402897532302
   7.0399999999999990E-002    -88708.140657540731
   7.1249999999999980E-002    -102238.05473107901
   7.2099999999999997E-002    -115178.37477140712
   7.2949999999999987E-002    -127428.49371951127
   7.3800000000000004E-002    -138894.10393348304
   7.4649999999999994E-002    -149488.69751192772
   7.5499999999999984E-002    -159131.76241540103
   7.6350000000000001E-002    -167752.95411834156
   7.7199999999999991E-002    -175291.02997083144
   7.8049999999999981E-002    -181694.47643089405
   7.8899999999999998E-002    -186922.35715475440
   7.9749999999999988E-002    -190944.71591415850
   8.0600000000000005E-002    -193742.76778589500
   8.1449999999999995E-002    -195308.13422094044
   8.2299999999999984E-002    -195644.17137845379
   8.3150000000000002E-002    -194764.11315371344
   8.3999999999999991E-002    -192692.23345753510
   8.4849999999999981E-002    -189463.01578938495
   8.5699999999999998E-002    -185120.67013784859
   8.6549999999999988E-002    -179717.62254084702
   8.7400000000000005E-002    -173315.37332274657
   8.8249999999999995E-002    -165982.40668478215
   8.9099999999999985E-002    -157795.03843419551
   8.9950000000000002E-002    -148834.31970089814
   9.0799999999999992E-002    -139185.75946665194
   9.1649999999999981E-002    -128939.34280930455
   9.2499999999999999E-002    -118187.60514014801
   9.3349999999999989E-002    -107024.53975782510
   9.4200000000000006E-002    -95545.461237912241
   9.5049999999999996E-002    -83845.026612147398
   9.5899999999999985E-002    -72016.599486582665
   9.6750000000000003E-002    -60153.203706615219
   9.7599999999999992E-002    -48343.131034908700
   9.8449999999999982E-002    -36671.270778709943
   9.9299999999999999E-002    -25218.475158754951
  0.10014999999999999         -14060.955760231349
  0.10099999999999998         -3268.4625043880351
  0.10185000000000000          7094.1800810487030
  0.10269999999999999          16968.698466590962
  0.10355000000000000          26303.967585931838
  0.10439999999999999          35056.431072211541
  0.10524999999999998          43187.531109353687
  0.10610000000000000          50667.956700637144
  0.10694999999999999          57474.332592207880
  0.10779999999999998          63589.916066256905
  0.10865000000000000          69005.760053722857
  0.10949999999999999          73718.631421363520
  0.11035000000000000          77731.319956228472
  0.11119999999999999          81052.497459499791
  0.11204999999999998          83696.522692990809
  0.11290000000000000          85682.262919884903
  0.11374999999999999          87033.651560611092
  0.11459999999999998          87778.721642665056
  0.11545000000000000          87949.214113134803
  0.11629999999999999          87579.600201225723
  0.11715000000000000          86706.991708969887
  0.11799999999999999          85370.114994587682
  0.11884999999999998          83608.975127729238
  0.11970000000000000          81464.702241751613
  0.12054999999999999          78978.305642066640
  0.12139999999999998          76191.727547427188
  0.12225000000000000          73146.186195152171
  0.12309999999999999          69882.563946723429
  0.12395000000000000          66440.646820510097
  0.12479999999999999          62859.205529418221
  0.12564999999999998          59174.877796813955
  0.12650000000000000          55422.419290359634
  0.12734999999999999          51634.621771868849
  0.12819999999999998          47841.637042424030
  0.12905000000000000          44071.597106970439
  0.12989999999999999          40349.908837656752
  0.13074999999999998          36700.001515999109
  0.13159999999999999          33142.613984674783
  0.13245000000000001          29696.246943886345
  0.13329999999999997          26376.979451235376
  0.13414999999999999          23198.201554804436
  0.13500000000000001          20170.893085184965
  0.13584999999999997          17303.634872721072
  0.13669999999999999          14602.760869745352
  0.13755000000000001          12072.131467024899
  0.13839999999999997          9714.2049463182648
  0.13924999999999998          7529.5599100344762
  0.14010000000000000          5517.3954249879907
  0.14094999999999996          3675.9341818633848
  0.14179999999999998          2002.0296618554653
  0.14265000000000000          491.58234180897898
  0.14350000000000002         -860.67466996761641
  0.14434999999999998         -2060.9828133946567
  0.14520000000000000         -3116.4059282219982
  0.14605000000000001         -4034.7328768041984
  0.14689999999999998         -4824.3945373938432
  0.14774999999999999         -5494.1151792311339
  0.14860000000000001         -6052.7226490235544
  0.14944999999999997         -6508.9668334605849
  0.15029999999999999         -6871.4094939997713
  0.15115000000000001         -7148.3669942981624
  0.15199999999999997         -7347.8556857158856
  0.15284999999999999         -7477.6294313924200
  0.15370000000000000         -7545.1235025664246
  0.15454999999999997         -7557.4065433400701
  0.15539999999999998         -7521.1324306471488
  0.15625000000000000         -7443.0153971664313
  0.15709999999999996         -7329.0332943248231
  0.15794999999999998         -7184.9325231349630
  0.15880000000000000         -7016.0115460479619
  0.15965000000000001         -6827.1428339607028
  0.16049999999999998         -6622.6094177664982
  0.16134999999999999         -6406.2661529368088
  0.16220000000000001         -6181.5460762259008
  0.16304999999999997         -5951.3084632941054
  0.16389999999999999         -5718.1384701055213
  0.16475000000000001         -5484.1332634599203
  0.16559999999999997         -5251.1761986194833
  0.16644999999999999         -5020.7301643594956
  0.16730000000000000         -4794.1904903980567
  0.16814999999999997         -4572.5899980521699
  0.16899999999999998         -4356.8980491641851
  0.16985000000000000         -4147.6677012120590
  0.17069999999999996         -3945.4941051356545
  0.17154999999999998         -3750.6287129850971
  0.17240000000000000         -3563.2214160183157
  0.17325000000000002         -3383.3209094289841
  0.17409999999999998         -3210.8858205698443
  0.17494999999999999         -3045.7963325156288
  0.17580000000000001         -2888.0054212852606
  0.17664999999999997         -2737.3590434702560
  0.17749999999999999         -2593.7998290381133
  0.17835000000000001         -2457.1506342996045
  0.17919999999999997         -2327.3614823676107
  0.18004999999999999         -2204.2208352014468
  0.18090000000000001         -2087.5090689260496
  0.18174999999999997         -1977.0067456104969
  0.18259999999999998         -1872.5536092874197
  0.18345000000000000         -1773.9368185020892
  0.18429999999999996         -1680.9773445539392
  0.18514999999999998         -1593.4686898676600
  0.18600000000000000         -1511.1297424705742
  0.18684999999999996         -1433.6946534285257
  0.18769999999999998         -1360.8163514300334
  0.18855000000000000         -1292.1630841361089
  0.18940000000000001         -1227.3530656279670
  0.19024999999999997         -1166.0683590140518
  0.19109999999999999         -1108.1192751828492
  0.19195000000000001         -1053.3538721955799
  0.19279999999999997         -1001.7478688272980
  0.19364999999999999         -953.25016246340124
  0.19450000000000001         -907.80592059082062
  0.19534999999999997         -865.23536777584764
  0.19619999999999999         -825.26147785946443
  0.19705000000000000         -787.52160950546340
  0.19789999999999996         -751.57104476331779
  0.19874999999999998         -717.02482777436239
  0.19960000000000000         -683.58569154543829
  0.20044999999999996         -651.08647120006924
  0.20129999999999998         -619.54917991617242
  0.20215000000000000         -589.05279159427710
  0.20300000000000001         -559.81939049329560
  0.20384999999999998         -531.95612156927450
  0.20469999999999999         -505.56975853475285
  0.20555000000000001         -480.61562466844845
  0.20639999999999997         -456.96531699426555
  0.20724999999999999         -434.48708765580506
  0.20810000000000001         -413.02866895714129
  0.20894999999999997         -392.58443598715172
  0.20979999999999999         -373.20572380142977
  0.21065000000000000         -355.08915215662961
  0.21149999999999997         -338.48060307628828
  0.21234999999999998         -323.58346088611228
  0.21320000000000000         -310.55994507009115
  0.21404999999999996         -299.43085893336377
  0.21489999999999998         -290.09225632343896
  0.21575000000000000         -282.34954459764862
  0.21659999999999996         -275.98056444506227
  0.21744999999999998         -270.77507409824801
  0.21829999999999999         -266.63511385682006
  0.21915000000000001         -263.54309991525940
  0.21999999999999997         -261.53548773438342
  0.22084999999999999         -260.69010003643581
  0.22170000000000001         -261.06000470163872
  0.22254999999999997         -262.57330149919579
  0.22339999999999999         -265.07088005238171
  0.22425000000000000         -268.25952898558558
  0.22509999999999997         -271.77323936080802
  0.22594999999999998         -275.22365623616133
  0.22680000000000000         -278.26337867565201
  0.22764999999999996         -280.61571506330182
  0.22849999999999998         -282.11164616848856
  0.22935000000000000         -282.71306364226234
  0.23019999999999996         -282.43196624631275
  0.23104999999999998         -281.35249445006684
  0.23190000000000000         -279.57903493322061
  0.23275000000000001         -277.17642474869109
  0.23359999999999997         -274.21484686524292
  0.23444999999999999         -270.69549488336935
  0.23530000000000001         -266.66566566603194
  0.23614999999999997         -262.15284774396059
  0.23699999999999999         -257.20258204289934
  0.23785000000000001         -251.88121197649048
  0.23869999999999997         -246.26276965878816
  0.23954999999999999         -240.45403572983236
  0.24040000000000000         -234.50555063455522
  0.24124999999999996         -228.46357781058376
  0.24209999999999998         -222.35623006109773
  0.24295000000000000         -216.18379418141245
  0.24379999999999996         -209.97762081200122
  0.24464999999999998         -203.77245097651172
  0.24550000000000000         -197.65935700361905
  0.24634999999999996         -191.74227622059453
  0.24719999999999998         -186.17386409385819
  0.24804999999999999         -181.06751196222174
  0.24890000000000001         -176.50342895542568
  0.24974999999999997         -172.46143930272973
  0.25059999999999999         -168.80970621926241
  0.25145000000000001         -165.32824210806533
  0.25229999999999997         -161.70150471447553
  0.25314999999999999         -157.58101347464736
  0.25400000000000000         -152.67097712743649
  0.25484999999999997         -146.74853411571306
  0.25569999999999998         -139.70596990332558
  0.25655000000000000         -131.58046531224892
  0.25739999999999996         -122.49307305645630
  0.25824999999999998         -112.63076985568921
  0.25910000000000000         -102.14372026962032
  0.25994999999999996         -91.144574974479625
  0.26079999999999998         -79.639498433856019
  0.26164999999999999         -67.557029986166853
  0.26249999999999996         -54.791506526756123
  0.26334999999999997         -41.254296529711695
  0.26419999999999999         -26.942422968910982
  0.26505000000000001         -12.002039643742881
  0.26589999999999997          3.2882652455771768
  0.26674999999999999          18.494796586108762
  0.26760000000000000          33.149465886762215
  0.26844999999999997          46.774962362500276
  0.26929999999999998          58.989104624913878
  0.27015000000000000          69.536274399938875
  0.27099999999999996          78.306554025703136
  0.27184999999999998          85.302855767197727
  0.27270000000000000          90.591752583770287
  0.27354999999999996          94.235062054884580
  0.27439999999999998          96.255772729442199
  0.27524999999999999          96.578582259748657
  0.27609999999999996          95.040871551440773
  0.27694999999999997          91.434444028527636
  0.27779999999999999          85.588050720986033
  0.27865000000000001          77.386890057189888
  0.27949999999999997          66.858781696408769
  0.28034999999999999          54.180435071164290
  0.28120000000000001          39.667141436924624
  0.28204999999999997          23.730155307588920
  0.28289999999999998          6.8189379170133630
  0.28375000000000000         -10.646427047773116
  0.28459999999999996         -28.318552950369678
  0.28544999999999998         -45.942822000045858
  0.28630000000000000         -63.359567395250608
  0.28714999999999996         -80.470082522107390
  0.28799999999999998         -97.177205570240105
  0.28885000000000000         -113.36943197529494
  0.28969999999999996         -128.86572488740163
  0.29054999999999997         -143.42346388692462
  0.29139999999999999         -156.76294899208068
  0.29224999999999995         -168.58649686376356
  0.29309999999999997         -178.64620762632882
  0.29394999999999999         -186.77010805448569
  0.29480000000000001         -192.90311555526040
  0.29564999999999997         -197.09798133815997
  0.29649999999999999         -199.49109541224573
  0.29735000000000000         -200.27064736050585
  0.29819999999999997         -199.62541065918339
  0.29904999999999998         -197.71276910938028
  0.29990000000000000         -194.63283967645967
  0.30074999999999996         -190.44368239446439
  0.30159999999999998         -185.16842263359129
  0.30245000000000000         -178.83124769247277
  0.30329999999999996         -171.49576453178418
  0.30414999999999998         -163.26036204605398
  0.30499999999999999         -154.27482783546907
  0.30584999999999996         -144.71620864256229
  0.30669999999999997         -134.74858674850964
  0.30754999999999999         -124.49159928797386
  0.30840000000000001         -114.02249349128181
  0.30924999999999997         -103.33895629365524
  0.31009999999999999         -92.391297145810512
  0.31095000000000000         -81.119908916454278
  0.31179999999999997         -69.468418226914963
  0.31264999999999998         -57.415099798850214
  0.31350000000000000         -44.978399207529989
  0.31434999999999996         -32.210288833491042
  0.31519999999999998         -19.174171578482486
  0.31605000000000000         -5.9121399093430380
  0.31689999999999996          7.5512937796373052
  0.31774999999999998          21.213295896306818
  0.31859999999999999          35.085332642621353
  0.31944999999999996          49.150841856711367
  0.32029999999999997          63.338324067419265
  0.32114999999999999          77.511491673445136
  0.32199999999999995          91.467514839391214
  0.32284999999999997          104.95227040585954
  0.32369999999999999          117.71187144094833
  0.32455000000000001          129.51204040224439
  0.32539999999999997          140.17645603609122
  0.32624999999999998          149.59231176465036
  0.32710000000000000          157.69427270887240
  0.32794999999999996          164.43744063388559
  0.32879999999999998          169.75823580022129
  0.32965000000000000          173.54405887640689
  0.33049999999999996          175.63000991679485
  0.33134999999999998          175.78819983870864
  0.33220000000000000          173.77888674898628
  0.33304999999999996          169.37967521183461
  0.33389999999999997          162.43257343002000
  0.33474999999999999          152.87157596587193
  0.33559999999999995          140.73833179854276
  0.33644999999999997          126.18020206242032
  0.33729999999999999          109.43155442574182
  0.33815000000000001          90.788334906043374
  0.33899999999999997          70.576396115620241
  0.33984999999999999          49.134747553677698
  0.34070000000000000          26.794244090394358
  0.34154999999999996          3.8711987308628482
  0.34239999999999998         -19.339071688471147
  0.34325000000000000         -42.550054089660669
  0.34409999999999996         -65.491864110795305
  0.34494999999999998         -87.901934004429279
  0.34580000000000000         -109.51309844576261
  0.34664999999999996         -130.04868200442391
  0.34749999999999998         -149.22134824931820
  0.34834999999999999         -166.73234778168472
  0.34919999999999995         -182.28387887701058
  0.35004999999999997         -195.60140403119729
  0.35089999999999999         -206.45675474975999
  0.35174999999999995         -214.69779046571787
  0.35259999999999997         -220.26501271512589
  0.35344999999999999         -223.19492436237365
  0.35430000000000000         -223.60449310973206
  0.35514999999999997         -221.66670053320141
  0.35599999999999998         -217.56716260071079
  0.35685000000000000         -211.48267666652248
  0.35769999999999996         -203.55321301491381
  0.35854999999999998         -193.88700313027647
  0.35940000000000000         -182.58044161476047
  0.36024999999999996         -169.75037284148880
  0.36109999999999998         -155.56043953541294
  0.36194999999999999         -140.24200870182440
  0.36279999999999996         -124.08964380634525
  0.36364999999999997         -107.44062038178123
  0.36449999999999999         -90.636737702303066
  0.36534999999999995         -73.978971022708492
  0.36619999999999997         -57.701157378919739
  0.36704999999999999         -41.953690833138140
  0.36790000000000000         -26.805820548177770
  0.36874999999999997         -12.275070133664261
  0.36959999999999998          1.6487447418211219
  0.37045000000000000          14.980556309529694
  0.37129999999999996          27.724722335211570
  0.37214999999999998          39.875436419378630
  0.37300000000000000          51.428031993758147
  0.37384999999999996          62.388094988295741
  0.37469999999999998          72.779662079894436
  0.37554999999999999          82.641765544298295
  0.37639999999999996          92.014041377607882
  0.37724999999999997          100.92200545285914
  0.37809999999999999          109.36111021136504
  0.37894999999999995          117.30220157200500
  0.37979999999999997          124.69413085685160
  0.38064999999999993          131.47843306538098
  0.38149999999999995          137.61415844824043
  0.38234999999999997          143.07566332548151
  0.38319999999999999          147.84822777812363
  0.38405000000000000          151.90509172299275
  0.38490000000000002          155.18269475394169
  0.38574999999999993          157.56105903641813
  0.38659999999999994          158.85761215734817
  0.38744999999999996          158.84570217783670