 -0.12000000000000000          0.0000000000000000
 -0.11914999999999999          0.0000000000000000
 -0.11830000000000000          0.0000000000000000
 -0.11745000000000000          0.0000000000000000
 -0.11660000000000000          0.0000000000000000
 -0.11574999999999999          0.0000000000000000
 -0.11490000000000000          0.0000000000000000
 -0.11405000000000000          0.0000000000000000
 -0.11320000000000000         -6.0720807493868865E-024
 -0.11234999999999999         -9.3692454962263353E-023
 -0.11150000000000000         -7.2084637956694742E-022
 -0.11065000000000000         -3.6426870010058877E-021
 -0.10979999999999999         -1.3354725279384986E-020
 -0.10894999999999999         -3.6678083040228082E-020
 -0.10810000000000000         -7.3104508931337690E-020
 -0.10725000000000000         -8.4091950506110462E-020
 -0.10639999999999999          6.3047607068766261E-020
 -0.10554999999999999          6.4443154245561593E-019
 -0.10470000000000000          2.0176178426323741E-018
 -0.10385000000000000          4.2720125861377600E-018
 -0.10299999999999999          6.4476910255957458E-018
 -0.10214999999999999          5.4624888245248242E-018
 -0.10130000000000000         -4.5021971429034431E-018
 -0.10045000000000000         -3.0659081487818607E-017
  -9.9599999999999994E-002    -7.6540223196723348E-017
  -9.8750000000000004E-002    -1.3253103065905430E-016
  -9.7900000000000001E-002    -1.6457956660981352E-016
  -9.7049999999999997E-002    -1.0857758513310360E-016
  -9.6199999999999994E-002     1.1781209417707971E-016
  -9.5349999999999990E-002     5.7472662652680813E-016
  -9.4500000000000001E-002     1.2298806900973447E-015
  -9.3649999999999997E-002     1.8779688876358784E-015
  -9.2799999999999994E-002     2.0948485335476467E-015
  -9.1950000000000004E-002     1.2887051498029884E-015
  -9.1100000000000000E-002    -1.0997445810525069E-015
  -9.0249999999999997E-002    -5.2471994865942704E-015
  -8.9399999999999993E-002    -1.0536024481592514E-014
  -8.8549999999999990E-002    -1.5265927425082150E-014
  -8.7700000000000000E-002    -1.6726211171360028E-014
  -8.6849999999999997E-002    -1.1816058351518644E-014
  -8.5999999999999993E-002     1.7784556245032915E-015
  -8.5150000000000003E-002     2.4115947811979888E-014
  -8.4300000000000000E-002     5.1770500486743929E-014
  -8.3449999999999996E-002     7.7482299067416922E-014
  -8.2600000000000007E-002     9.1166699446345779E-014
  -8.1749999999999989E-002     8.2314942174242295E-014
  -8.0900000000000000E-002     4.3239638529383680E-014
  -8.0049999999999996E-002    -2.7830330628822431E-014
  -7.9199999999999993E-002    -1.2483254815627863E-013
  -7.8350000000000003E-002    -2.3368861935745167E-013
  -7.7499999999999999E-002    -3.3361420985194918E-013
  -7.6649999999999996E-002    -3.9907150860592549E-013
  -7.5800000000000006E-002    -4.0158783705585896E-013
  -7.4949999999999989E-002    -3.1169317595111591E-013
  -7.4099999999999999E-002    -1.0276841603857483E-013
  -7.3249999999999996E-002     2.4048473633191203E-013
  -7.2399999999999992E-002     7.0726624958162486E-013
  -7.1550000000000002E-002     1.2416822064765678E-012
  -7.0699999999999999E-002     1.7274021513012374E-012
  -6.9849999999999995E-002     1.9889017617263615E-012
  -6.9000000000000006E-002     1.8225511173205416E-012
  -6.8149999999999988E-002     1.0630176873139513E-012
  -6.7299999999999999E-002    -3.2598281780762136E-013
  -6.6449999999999995E-002    -2.1679160683264818E-012
  -6.5599999999999992E-002    -4.0426893172460667E-012
  -6.4750000000000002E-002    -5.3524308226983390E-012
  -6.3899999999999998E-002    -5.4998268972396892E-012
  -6.3049999999999995E-002    -4.1449708236578558E-012
  -6.2199999999999998E-002    -1.4498771616291748E-012
  -6.1350000000000002E-002     1.8156687232339110E-012
  -6.0499999999999998E-002     4.4200346695902945E-012
  -5.9650000000000002E-002     5.1011518242463017E-012
  -5.8799999999999998E-002     3.1869327342621481E-012
  -5.7950000000000002E-002    -8.2993674650983352E-013
  -5.7099999999999998E-002    -5.0729419219003954E-012
  -5.6249999999999994E-002    -6.6776803332614996E-012
  -5.5400000000000005E-002    -2.8570263682413305E-012
  -5.4550000000000001E-002     7.6245755547302728E-012
  -5.3699999999999998E-002     2.3138184826104679E-011
  -5.2849999999999994E-002     3.8757257555622972E-011
  -5.2000000000000005E-002     4.7265200092950625E-011
  -5.1150000000000001E-002     4.1672681210357548E-011
  -5.0299999999999997E-002     1.8592111164076407E-011
  -4.9449999999999994E-002    -1.8853339468551223E-011
  -4.8600000000000004E-002    -6.0179446421371849E-011
  -4.7750000000000001E-002    -8.9942587837463323E-011
  -4.6899999999999997E-002    -9.3440834922414452E-011
  -4.6049999999999994E-002    -6.4190299745979302E-011
  -4.5200000000000004E-002    -1.0211322302676149E-011
  -4.4350000000000001E-002     4.4373766050175135E-011
  -4.3499999999999997E-002     6.5001550039063641E-011
  -4.2649999999999993E-002     1.9715178363322856E-011
  -4.1800000000000004E-002    -1.0366682415375684E-010
  -4.0950000000000000E-002    -2.8257278476243015E-010
  -4.0099999999999997E-002    -4.5444421468225035E-010
  -3.9249999999999993E-002    -5.2709489246661077E-010
  -3.8400000000000004E-002    -4.0565710498944192E-010
  -3.7550000000000000E-002    -3.0407810696544667E-011
  -3.6699999999999997E-002     5.8657859868434538E-010
  -3.5850000000000007E-002     1.3409389792762547E-009
  -3.5000000000000003E-002     2.0442213352290278E-009
  -3.4150000000000000E-002     2.4649088171120429E-009
  -3.3299999999999996E-002     2.3943268525417719E-009
  -3.2450000000000007E-002     1.7178703693030044E-009
  -3.1600000000000003E-002     4.6590217206365574E-010
  -3.0750000000000000E-002    -1.1779312387462453E-009
  -2.9899999999999996E-002    -2.9198334274366087E-009
  -2.9050000000000006E-002    -4.4395233640221745E-009
  -2.8200000000000003E-002    -5.4846478732264030E-009
  -2.7349999999999999E-002    -5.9368460673651782E-009
  -2.6499999999999996E-002    -5.8168247907137334E-009
  -2.5650000000000006E-002    -5.2189846995595317E-009
  -2.4800000000000003E-002    -4.1989879682567732E-009
  -2.3949999999999999E-002    -2.6674761030487044E-009
  -2.3099999999999996E-002    -3.5529653980620823E-010
  -2.2250000000000006E-002     3.1007046806445007E-009
  -2.1400000000000002E-002     7.9467871187912207E-009
  -2.0549999999999999E-002     1.4033064898237119E-008
  -1.9699999999999995E-002     2.0575956162073959E-008
  -1.8850000000000006E-002     2.6093707518513844E-008
  -1.8000000000000002E-002     2.8614311634185926E-008
  -1.7149999999999999E-002     2.6170931866959395E-008
  -1.6299999999999995E-002     1.7484428397564215E-008
  -1.5450000000000005E-002     2.6246264937219642E-009
  -1.4600000000000002E-002    -1.6608821377511824E-008
  -1.3749999999999998E-002    -3.6804493693320216E-008
  -1.2899999999999995E-002    -5.3637874367622000E-008
  -1.2050000000000005E-002    -6.3028179518356332E-008
  -1.1200000000000002E-002    -6.2428948288626364E-008
  -1.0349999999999998E-002    -5.1806216554498721E-008
  -9.5000000000000084E-003    -3.3885127789265068E-008
  -8.6500000000000049E-003    -1.3440102877835177E-008
  -7.8000000000000014E-003     4.2733763722025249E-009
  -6.9499999999999978E-003     1.5499035984243814E-008
  -6.1000000000000082E-003     1.9676546274065867E-008
  -5.2500000000000047E-003     2.0137646583848625E-008
  -4.4000000000000011E-003     2.3325339144393631E-008
  -3.5499999999999976E-003     3.6540741467429874E-008
  -2.7000000000000079E-003     6.4789082241511333E-008
  -1.8500000000000044E-003     1.0775285355812803E-007
  -1.0000000000000009E-003     1.5807669166700188E-007
  -1.4999999999999736E-004     2.0188786632214927E-007
   6.9999999999999230E-004     2.2182550868145657E-007
   1.5499999999999958E-003     2.0198854881761078E-007
   2.3999999999999994E-003     1.3342149487266751E-007
   3.2500000000000029E-003     1.8338999825427426E-008
   4.0999999999999925E-003    -1.2853892829634468E-007
   4.9499999999999961E-003    -2.8239226783470210E-007
   5.7999999999999996E-003    -4.1411513709658404E-007
   6.6499999999999893E-003    -4.9797825017518496E-007
   7.5000000000000067E-003    -5.1875802823620807E-007
   8.3499999999999963E-003    -4.7589583310757942E-007
   9.1999999999999860E-003    -3.8303322065803299E-007
   1.0050000000000003E-002    -2.6277066747817488E-007
   1.0899999999999993E-002    -1.3818668560716607E-007
   1.1750000000000010E-002    -2.3999194794825639E-008
   1.2600000000000000E-002     7.9331284431921855E-008
   1.3449999999999990E-002     1.8595421641758644E-007
   1.4300000000000007E-002     3.1863802788022832E-007
   1.5149999999999997E-002     4.9784429348659150E-007
   1.5999999999999986E-002     7.2933275132978694E-007
   1.6850000000000004E-002     9.9472079554648504E-007
   1.7699999999999994E-002     1.2490033827561506E-006
   1.8549999999999983E-002     1.4270725247228356E-006
   1.9400000000000001E-002     1.4584417930656493E-006
   2.0249999999999990E-002     1.2865122825284204E-006
   2.1100000000000008E-002     8.8677345335510890E-007
   2.1949999999999997E-002     2.7819833313039175E-007
   2.2799999999999987E-002    -4.7623253485437847E-007
   2.3650000000000004E-002    -1.2807143430871588E-006
   2.4499999999999994E-002    -2.0267587807565213E-006
   2.5349999999999984E-002    -2.6164947252507121E-006
   2.6200000000000001E-002    -2.9822860381612935E-006
   2.7049999999999991E-002    -3.0968312557253517E-006
   2.7900000000000008E-002    -2.9710418095977998E-006
   2.8749999999999998E-002    -2.6409651015625367E-006
   2.9599999999999987E-002    -2.1488347380349673E-006
   3.0450000000000005E-002    -1.5253644492905475E-006
   3.1299999999999994E-002    -7.7996095590263693E-007
   3.2149999999999984E-002     9.6938338669402329E-008
   3.3000000000000002E-002     1.1198203358137992E-006
   3.3849999999999991E-002     2.2867262188232708E-006
   3.4700000000000009E-002     3.5583257193689507E-006
   3.5549999999999998E-002     4.8452582500035609E-006
   3.6399999999999988E-002     6.0097795488191948E-006
   3.7250000000000005E-002     6.8830398297949704E-006
   3.8099999999999995E-002     7.2947586527637912E-006
   3.8949999999999985E-002     7.1076977739170894E-006
   3.9800000000000002E-002     6.2476628200886146E-006
   4.0649999999999992E-002     4.7211361898656095E-006
   4.1500000000000009E-002     2.6158740972123420E-006
   4.2349999999999999E-002     8.5282603796147813E-008
   4.3199999999999988E-002    -2.6784239216277508E-006
   4.4050000000000006E-002    -5.4738785541054659E-006
   4.4899999999999995E-002    -8.1148169341608325E-006
   4.5749999999999985E-002    -1.0442992539090927E-005
   4.6600000000000003E-002    -1.2328075721797084E-005
   4.7449999999999992E-002    -1.3657680105603763E-005
   4.8299999999999982E-002    -1.4323688725491085E-005
   4.9149999999999999E-002    -1.4213087485314575E-005
   4.9999999999999989E-002    -1.3208866841940191E-005
   5.0850000000000006E-002    -1.1204680639563784E-005
   5.1699999999999996E-002    -8.1308816836102662E-006
   5.2549999999999986E-002    -3.9872090973334260E-006
   5.3400000000000003E-002     1.1266724882773727E-006
   5.4249999999999993E-002     6.9906833938285431E-006
   5.5099999999999982E-002     1.3260214811849437E-005
   5.5950000000000000E-002     1.9482022995962780E-005
   5.6799999999999989E-002     2.5128584035356539E-005
   5.7650000000000007E-002     2.9647019661055315E-005
   5.8499999999999996E-002     3.2515815525830836E-005
   5.9349999999999986E-002     3.3301383387101375E-005
   6.0200000000000004E-002     3.1707376774922622E-005
   6.1049999999999993E-002     2.7611730251094715E-005
   6.1899999999999983E-002     2.1087232062766782E-005
   6.2750000000000000E-002     1.2405003879291149E-005
   6.3599999999999990E-002     2.0212519337671624E-006
   6.4450000000000007E-002    -9.4497032396565817E-006
   6.5299999999999997E-002    -2.1274397210410952E-005
   6.6149999999999987E-002    -3.2645023884504736E-005
   6.7000000000000004E-002    -4.2730366602953736E-005
   6.7849999999999994E-002    -5.0726173399448170E-005
   6.8699999999999983E-002    -5.5908396737178409E-005
   6.9550000000000001E-002    -5.7680136463775952E-005
   7.0399999999999990E-002    -5.5619174815264699E-005
   7.1249999999999980E-002    -4.9516148685072370E-005
   7.2099999999999997E-002    -3.9403986185105409E-005
   7.2949999999999987E-002    -2.5572769336912669E-005
   7.3800000000000004E-002    -8.5610449539233673E-006
   7.4649999999999994E-002     1.0877292005464296E-005
   7.5499999999999984E-002     3.1828135998889417E-005
   7.6350000000000001E-002     5.3306918098807910E-005
   7.7199999999999991E-002     7.4357305298215832E-005
   7.8049999999999981E-002     9.4157392363410357E-005
   7.8899999999999998E-002     1.1211421819335973E-004
   7.9749999999999988E-002     1.2793915108161107E-004
   8.0600000000000005E-002     1.4168638677293895E-004
   8.1449999999999995E-002     1.5375439411236653E-004
   8.2299999999999984E-002     1.6486468299112039E-004
   8.3150000000000002E-002     1.7598682023180410E-004
   8.3999999999999991E-002     1.8828701859230549E-004
   8.4849999999999981E-002     2.0304013565010918E-004
   8.5699999999999998E-002     2.2159688567629132E-004
   8.6549999999999988E-002     2.4533290632394337E-004
   8.7400000000000005E-002     2.7563505935954851E-004
   8.8249999999999995E-002     3.1389718621790779E-004
   8.9099999999999985E-002     3.6151312672704340E-004
   8.9950000000000002E-002     4.1987386732130611E-004
   9.0799999999999992E-002     4.9040390925877465E-004
   9.1649999999999981E-002     5.7461070483846312E-004
   9.2499999999999999E-002     6.7407176175073795E-004
   9.3349999999999989E-002     7.9057942204701791E-004
   9.4200000000000006E-002     9.2620890837772686E-004
   9.5049999999999996E-002     1.0834663198227960E-003
   9.5899999999999985E-002     1.2651362609036178E-003
   9.6750000000000003E-002     1.4747129929195348E-003
   9.7599999999999992E-002     1.7160691588438983E-003
   9.8449999999999982E-002     1.9937480376718041E-003
   9.9299999999999999E-002     2.3126430378832032E-003
  0.10014999999999999          2.6781173007899830E-003
  0.10099999999999998          3.0960076270734687E-003
  0.10185000000000000          3.5722087797013542E-003
  0.10269999999999999          4.1133885315820283E-003
  0.10355000000000000          4.7264103661179687E-003
  0.10439999999999999          5.4186663306888252E-003
  0.10524999999999998          6.1983346550219982E-003
  0.10610000000000000          7.0740910558001833E-003
  0.10694999999999999          8.0552831183167521E-003
  0.10779999999999998          9.1519075678809479E-003
  0.10865000000000000          1.0375005866701354E-002
  0.10949999999999999          1.1735924619830090E-002
  0.11035000000000000          1.3246868360677917E-002
  0.11119999999999999          1.4920309091636063E-002
  0.11204999999999998          1.6769039522610687E-002
  0.11290000000000000          1.8807029173365700E-002
  0.11374999999999999          2.1046565982829193E-002
  0.11459999999999998          2.3502232063129305E-002
  0.11545000000000000          2.6186649322194149E-002
  0.11629999999999999          2.9113257987173312E-002
  0.11715000000000000          3.2295515917343878E-002
  0.11799999999999999          3.5743721773773621E-002
  0.11884999999999998          3.9468722497540853E-002
  0.11970000000000000          4.3478216006308815E-002
  0.12054999999999999          4.7780242504668578E-002
  0.12139999999999998          5.2378047566712230E-002
  0.12225000000000000          5.7275882612740359E-002
  0.12309999999999999          6.2472525240517093E-002
  0.12395000000000000          6.7964931684836721E-002
  0.12479999999999999          7.3747128648539981E-002
  0.12564999999999998          7.9809969913060927E-002
  0.12650000000000000          8.6133943298946636E-002
  0.12734999999999999          9.2702421687466244E-002
  0.12819999999999998          9.9487958649701849E-002
  0.12905000000000000         0.10645710681567819
  0.12989999999999999         0.11356515775981485
  0.13074999999999998         0.12076556279174416
  0.13159999999999999         0.12800273204109072
  0.13245000000000001         0.13520656995657593
  0.13329999999999997         0.14230881491019567
  0.13414999999999999         0.14921414987261983
  0.13500000000000001         0.15583515863301201
  0.13584999999999997         0.16206948941291946
  0.13669999999999999         0.16779063651263584
  0.13755000000000001         0.17288561076991515
  0.13839999999999997         0.17722541806286504
  0.13924999999999998         0.18065540395128898
  0.14010000000000000         0.18304036621739234
  0.14094999999999996         0.18422787042491046
  0.14179999999999998         0.18405061371988873
  0.14265000000000000         0.18235384325361589
  0.14350000000000002         0.17897223484373037
  0.14434999999999998         0.17374891572983645
  0.14520000000000000         0.16649752977489149
  0.14605000000000001         0.15706948322884492
  0.14689999999999998         0.14527914356830002
  0.14774999999999999         0.13098921782186970
  0.14860000000000001         0.11402454564481990
  0.14944999999999997          9.4254652595447824E-002
  0.15029999999999999          7.1569513173523183E-002
  0.15115000000000001          4.5861731927638726E-002
  0.15199999999999997          1.7077464537488138E-002
  0.15284999999999999         -1.4810438982110610E-002
  0.15370000000000000         -4.9820714916043222E-002
  0.15454999999999997         -8.7939732485596417E-002
  0.15539999999999998        -0.12910116118155010
  0.15625000000000000        -0.17321819509122163
  0.15709999999999996        -0.22019093061769840
  0.15794999999999998        -0.26980742921704726
  0.15880000000000000        -0.32193909487380928
  0.15965000000000001        -0.37622897691932033
  0.16049999999999998        -0.43234586964234722
  0.16134999999999999        -0.48991832738597380
  0.16220000000000001        -0.54849978671394239
  0.16304999999999997        -0.60759641249114349
  0.16389999999999999        -0.66669196321503255
  0.16475000000000001        -0.72517868879817171
  0.16559999999999997        -0.78251024905849476
  0.16644999999999999        -0.83805517827828580
  0.16730000000000000        -0.89121825012335809
  0.16814999999999997        -0.94123125733406865
  0.16899999999999998        -0.98741771962037350
  0.16985000000000000         -1.0290885730837271
  0.17069999999999996         -1.0653861048811393
  0.17154999999999998         -1.0956387155659164
  0.17240000000000000         -1.1191785647868653
  0.17325000000000002         -1.1352420665361795
  0.17409999999999998         -1.1431918666681804
  0.17494999999999999         -1.1425033473741402
  0.17580000000000001         -1.1325463033980481
  0.17664999999999997         -1.1129892141817785
  0.17749999999999999         -1.0833001759692820
  0.17835000000000001         -1.0433127973042953
  0.17919999999999997        -0.99267684821338975
  0.18004999999999999        -0.93129986829253575
  0.18090000000000001        -0.85927197517263965
  0.18174999999999997        -0.77664634327624771
  0.18259999999999998        -0.68368978917235668
  0.18345000000000000        -0.58073815510487714
  0.18429999999999996        -0.46832177480303089
  0.18514999999999998        -0.34710897403869800
  0.18600000000000000        -0.21777836877365109
  0.18684999999999996         -8.1221101267422657E-002
  0.18769999999999998          6.1521808276980540E-002
  0.18855000000000000         0.20941963924789941
  0.18940000000000001         0.36119308315542092
  0.19024999999999997         0.51563655623628968
  0.19109999999999999         0.67130612606546713
  0.19195000000000001         0.82683120798000864
  0.19279999999999997         0.98067531720701073
  0.19364999999999999          1.1313753994145026
  0.19450000000000001          1.2773954195225543
  0.19534999999999997          1.4172299012439300
  0.19619999999999999          1.5493436969251746
  0.19705000000000000          1.6723207978229038
  0.19789999999999996          1.7847343400397262
  0.19874999999999998          1.8852533555873210
  0.19960000000000000          1.9726698696789147
  0.20044999999999996          2.0458834642709096
  0.20129999999999998          2.1039004356209401
  0.20215000000000000          2.1458437169496629
  0.20300000000000001          2.1711007110091622
  0.20384999999999998          2.1790221386052999
  0.20469999999999999          2.1693792108769943
  0.20555000000000001          2.1419465534870032
  0.20639999999999997          2.0967461978712874
  0.20724999999999999          2.0339881696616948
  0.20810000000000001          1.9541762591240932
  0.20894999999999997          1.8578200003898984
  0.20979999999999999          1.7458096931399669
  0.21065000000000000          1.6191133132204369
  0.21149999999999997          1.4788056440951256
  0.21234999999999998          1.3260892341496535
  0.21320000000000000          1.1622828820278341
  0.21404999999999996         0.98893000318923452
  0.21489999999999998         0.80759708718516054
  0.21575000000000000         0.61997171268570472
  0.21659999999999996         0.42782057146682712
  0.21744999999999998         0.23308368457018663
  0.21829999999999999          3.7549216173837691E-002
  0.21915000000000001        -0.15688111177582906
  0.21999999999999997        -0.34847805032465878
  0.22084999999999999        -0.53540350274855086
  0.22170000000000001        -0.71602692092368592
  0.22254999999999997        -0.88863438274736761
  0.22339999999999999         -1.0518988800110214
  0.22425000000000000         -1.2042697628708368
  0.22509999999999997         -1.3445146238416614
  0.22594999999999998         -1.4714355286117189
  0.22680000000000000         -1.5839407741059746
  0.22764999999999996         -1.6811176052231362
  0.22849999999999998         -1.7620503238270115
  0.22935000000000000         -1.8262735692501793
  0.23019999999999996         -1.8732538113312796
  0.23104999999999998         -1.9028622293941946
  0.23190000000000000         -1.9150754243025587
  0.23275000000000001         -1.9100423757535814
  0.23359999999999997         -1.8880807433311948
  0.23444999999999999         -1.8496369402444552
  0.23530000000000001         -1.7951719685060226
  0.23614999999999997         -1.7254103012027453
  0.23699999999999999         -1.6410424726758563
  0.23785000000000001         -1.5429819153738631
  0.23869999999999997         -1.4321285120094811
  0.23954999999999999         -1.3097062662332950
  0.24040000000000000         -1.1768635421636362
  0.24124999999999996         -1.0348955041317021
  0.24209999999999998        -0.88520782472792314
  0.24295000000000000        -0.72920760860603440
  0.24379999999999996        -0.56838754891217225
  0.24464999999999998        -0.40414427989799229
  0.24550000000000000        -0.23790650492264803
  0.24634999999999996         -7.1039725387561592E-002
  0.24719999999999998          9.5024874862948402E-002
  0.24804999999999999         0.25893988673677520
  0.24890000000000001         0.41935995487893557
  0.24974999999999997         0.57491212898994559
  0.25059999999999999         0.72427609473511256
  0.25145000000000001         0.86612413920007825
  0.25229999999999997         0.99926073900269041
  0.25314999999999999          1.1225215407321825
  0.25400000000000000          1.2348893702672055
  0.25484999999999997          1.3352958289302577
  0.25569999999999998          1.4230336258927054
  0.25655000000000000          1.4973281728655401
  0.25739999999999996          1.5575258660330156
  0.25824999999999998          1.6031413388710851
  0.25910000000000000          1.6337077121228845
  0.25994999999999996          1.6487941125551122
  0.26079999999999998          1.6481192212056219
  0.26164999999999999          1.6314850205077047
  0.26249999999999996          1.5988796747695571
  0.26334999999999997          1.5504142775815708
  0.26419999999999999          1.4865220167494257
  0.26505000000000001          1.4076035337761275
  0.26589999999999997          1.3142715644632432
  0.26674999999999999          1.2073367707817588
  0.26760000000000000          1.0876142670697739
  0.26844999999999997         0.95594973176623821
  0.26929999999999998         0.81343881604966228
  0.27015000000000000         0.66110501734571470
  0.27099999999999996         0.50023851095152960
  0.27184999999999998         0.33211334953465521
  0.27270000000000000         0.15817436420079994
  0.27354999999999996         -2.0044544248524240E-002
  0.27439999999999998        -0.20090678824695354
  0.27524999999999999        -0.38276036350596288
  0.27609999999999996        -0.56387964217819053
  0.27694999999999997        -0.74265391432966210
  0.27779999999999999        -0.91737772127908079
  0.27865000000000001         -1.0865078124055148
  0.27949999999999997         -1.2483792619399272
  0.28034999999999999         -1.4014507101630300
  0.28120000000000001         -1.5442385598606241
  0.28204999999999997         -1.6752801731097584
  0.28289999999999998         -1.7932469451873565
  0.28375000000000000         -1.8968534992959476
  0.28459999999999996         -1.9850524213794813
  0.28544999999999998         -2.0568990896991375
  0.28630000000000000         -2.1116557601350805
  0.28714999999999996         -2.1487915145329559
  0.28799999999999998         -2.1679286702599523
  0.28885000000000000         -2.1688910098177914
  0.28969999999999996         -2.1516680718413674
  0.29054999999999997         -2.1164050012068700
  0.29139999999999999         -2.0633893310161318
  0.29224999999999995         -1.9931297308139249
  0.29309999999999997         -1.9062796627269480
  0.29394999999999999         -1.8036485545031631
  0.29480000000000001         -1.6862894930883661
  0.29564999999999997         -1.5553316735933906
  0.29649999999999999         -1.4121454246046428
  0.29735000000000000         -1.2581613818904174
  0.29819999999999997         -1.0948561602615716
  0.29904999999999998        -0.92390674981369370
  0.29990000000000000        -0.74692366605427118
  0.30074999999999996        -0.56570322283108343
  0.30159999999999998        -0.38185855354578940
  0.30245000000000000        -0.19724222204758896
  0.30329999999999996         -1.3424974809032902E-002
  0.30414999999999998         0.16775662817052428
  0.30499999999999999         0.34470010283113511
  0.30584999999999996         0.51588134060392976
  0.30669999999999997         0.67972821238339498
  0.30754999999999999         0.83495939240332850
  0.30840000000000001         0.98043343985315357
  0.30924999999999997          1.1149564151654172
  0.31009999999999999          1.2376530122346818
  0.31095000000000000          1.3476833278070264
  0.31179999999999997          1.4443988383910771
  0.31264999999999998          1.5272118190170441
  0.31350000000000000          1.5958550731100978
  0.31434999999999996          1.6501257702008174
  0.31519999999999998          1.6899647781184490
  0.31605000000000000          1.7155701471973557
  0.31689999999999996          1.7271356421305599
  0.31774999999999998          1.7250895440623806
  0.31859999999999999          1.7099269449628791
  0.31944999999999996          1.6822036162105547
  0.32029999999999997          1.6427177492669842
  0.32114999999999999          1.5922922481508859
  0.32199999999999995          1.5318680243376930
  0.32284999999999997          1.4624379032237298
  0.32369999999999999          1.3850508487771147
  0.32455000000000001          1.3007749354793123
  0.32539999999999997          1.2106418708028077
  0.32624999999999998          1.1157351410458909
  0.32710000000000000          1.0170742383579801
  0.32794999999999996         0.91569229006616581
  0.32879999999999998         0.81260280670540541
  0.32965000000000000         0.70882992254920174
  0.33049999999999996         0.60535741896354356
  0.33134999999999998         0.50314906012032967
  0.33220000000000000         0.40308530361797901
  0.33304999999999996         0.30595363947198684
  0.33389999999999997         0.21245525234785578
  0.33474999999999999         0.12314995477776575
  0.33559999999999995          3.8501851203486759E-002
  0.33644999999999997         -4.1100118228681079E-002
  0.33729999999999999        -0.11534376973025492
  0.33815000000000001        -0.18393203143322179
  0.33899999999999997        -0.24663869464260588
  0.33984999999999999        -0.30324282838638217
  0.34070000000000000        -0.35360163251780458
  0.34154999999999996        -0.39764514676681439
  0.34239999999999998        -0.43540948578850081
  0.34325000000000000        -0.46703186358185378
  0.34409999999999996        -0.49270113395438647
  0.34494999999999998        -0.51270475351860378
  0.34580000000000000        -0.52734776282454343
  0.34664999999999996        -0.53695766044279614
  0.34749999999999998        -0.54184889008817949
  0.34834999999999999        -0.54235232637025976
  0.34919999999999995        -0.53877624066503249
  0.35004999999999997        -0.53146913887927938
  0.35089999999999999        -0.52078873524948954
  0.35174999999999995        -0.50711465525187371
  0.35259999999999997        -0.49083486191177955
  0.35344999999999999        -0.47234774647912475
  0.35430000000000000        -0.45203535666621286
  0.35514999999999997        -0.43024093406111547
  0.35599999999999998        -0.40726836772630481
  0.35685000000000000        -0.38341025256727657
  0.35769999999999996        -0.35893056245780486
  0.35854999999999998        -0.33408348585143488
  0.35940000000000000        -0.30914227439458003
  0.36024999999999996        -0.28438735245762542
  0.36109999999999998        -0.26002070212820499
  0.36194999999999999        -0.23627991530084061
  0.36279999999999996        -0.21329767709409225