 -0.12000000000000000          0.0000000000000000
 -0.11914999999999999          0.0000000000000000
 -0.11830000000000000          0.0000000000000000
 -0.11745000000000000          0.0000000000000000
 -0.11660000000000000          0.0000000000000000
 -0.11574999999999999          0.0000000000000000
 -0.11490000000000000          3.4890844567948532E-018
 -0.11405000000000000          3.1531424938394284E-017
 -0.11320000000000000          1.3637378193062238E-016
 -0.11234999999999999          3.4410870572545746E-016
 -0.11150000000000000          4.0185426372485647E-016
 -0.11065000000000000         -6.8739336232415955E-016
 -0.10979999999999999         -4.9134342370910666E-015
 -0.10894999999999999         -1.4163407530149789E-014
 -0.10810000000000000         -2.6369356111804469E-014
 -0.10725000000000000         -2.8834454358599912E-014
 -0.10639999999999999          7.3759580357897275E-015
 -0.10554999999999999          1.2239785497975490E-013
 -0.10470000000000000          3.3904350989670726E-013
 -0.10385000000000000          6.0428869221313729E-013
 -0.10299999999999999          7.1668597272545259E-013
 -0.10214999999999999          2.9251049396123793E-013
 -0.10130000000000000         -1.1421620067818416E-012
 -0.10045000000000000         -3.8485535574200228E-012
  -9.9599999999999994E-002    -7.3550329840403673E-012
  -9.8750000000000004E-002    -9.8856931322491333E-012
  -9.7900000000000001E-002    -8.1311777404746695E-012
  -9.7049999999999997E-002     2.0806424463409125E-012
  -9.6199999999999994E-002     2.3738137954695962E-011
  -9.5349999999999990E-002     5.5244596885140846E-011
  -9.4500000000000001E-002     8.6628791683804721E-011
  -9.3649999999999997E-002     9.7484628500539879E-011
  -9.2799999999999994E-002     5.9547852760965985E-011
  -9.1950000000000004E-002    -5.3544930787331515E-011
  -9.1100000000000000E-002    -2.4895725779379700E-010
  -9.0249999999999997E-002    -4.9357286515221935E-010
  -8.9399999999999993E-002    -6.9796864029224246E-010
  -8.8549999999999990E-002    -7.1815888318340573E-010
  -8.7700000000000000E-002    -3.8757162182829328E-010
  -8.6849999999999997E-002     4.1531274828167686E-010
  -8.5999999999999993E-002     1.6727245134590034E-009
  -8.5150000000000003E-002     3.1351806828114269E-009
  -8.4300000000000000E-002     4.2766786249770761E-009
  -8.3449999999999996E-002     4.3492810003312817E-009
  -8.2600000000000007E-002     2.5739374895292582E-009
  -8.1749999999999989E-002    -1.5360999905586334E-009
  -8.0900000000000000E-002    -7.7841676943735085E-009
  -8.0049999999999996E-002    -1.4961775308070541E-008
  -7.9199999999999993E-002    -2.0756460133171706E-008
  -7.8350000000000003E-002    -2.2060437644226599E-008
  -7.7499999999999999E-002    -1.5762798587097090E-008
  -7.6649999999999996E-002     4.7075328424507641E-011
  -7.5800000000000006E-002     2.4734311389836960E-008
  -7.4949999999999989E-002     5.4080448957393230E-008
  -7.4099999999999999E-002     8.0084011097908847E-008
  -7.3249999999999996E-002     9.2046420956563761E-008
  -7.2399999999999992E-002     7.9102267098329572E-008
  -7.1550000000000002E-002     3.3895616894466896E-008
  -7.0699999999999999E-002    -4.3424111039513099E-008
  -6.9849999999999995E-002    -1.4213717942297949E-007
  -6.9000000000000006E-002    -2.4020997209245699E-007
  -6.8149999999999988E-002    -3.0697158397689160E-007
  -6.7299999999999999E-002    -3.0954456342589509E-007
  -6.6449999999999995E-002    -2.2224392173208083E-007
  -6.5599999999999992E-002    -3.6947509723028594E-008
  -6.4750000000000002E-002     2.2848781741375579E-007
  -6.3899999999999998E-002     5.2694882561647118E-007
  -6.3049999999999995E-002     7.8644651346844634E-007
  -6.2199999999999998E-002     9.2304296394349315E-007
  -6.1350000000000002E-002     8.6089516936822474E-007
  -6.0499999999999998E-002     5.5552698215921282E-007
  -5.9650000000000002E-002     1.4536790284780099E-008
  -5.8799999999999998E-002    -6.9067865512398294E-007
  -5.7950000000000002E-002    -1.4275314314807029E-006
  -5.7099999999999998E-002    -2.0217037499746939E-006
  -5.6249999999999994E-002    -2.2919085117975519E-006
  -5.5400000000000005E-002    -2.0939318121492364E-006
  -5.4550000000000001E-002    -1.3643590282523252E-006
  -5.3699999999999998E-002    -1.5270592049318982E-007
  -5.2849999999999994E-002     1.3682560742173950E-006
  -5.2000000000000005E-002     2.9202919294042978E-006
  -5.1150000000000001E-002     4.1658268656743885E-006
  -5.0299999999999997E-002     4.7755909902798074E-006
  -4.9449999999999994E-002     4.5047264265537522E-006
  -4.8600000000000004E-002     3.2605095902283154E-006
  -4.7750000000000001E-002     1.1447291228012663E-006
  -4.6899999999999997E-002    -1.5421930949546002E-006
  -4.6049999999999994E-002    -4.3407426640253114E-006
  -4.5200000000000004E-002    -6.7112521720734625E-006
  -4.4350000000000001E-002    -8.1384826076655013E-006
  -4.3499999999999997E-002    -8.2409375847294886E-006
  -4.2649999999999993E-002    -6.8611289758003945E-006
  -4.1800000000000004E-002    -4.1154828503079067E-006
  -4.0950000000000000E-002    -3.9018032902048834E-007
  -4.0099999999999997E-002     3.7195137413990879E-006
  -3.9249999999999993E-002     7.5162463313243016E-006
  -3.8400000000000004E-002     1.0332718105040530E-005
  -3.7550000000000000E-002     1.1661139224630919E-005
  -3.6699999999999997E-002     1.1251773384881492E-005
  -3.5850000000000007E-002     9.1585542781108912E-006
  -3.5000000000000003E-002     5.7214557535063903E-006
  -3.4150000000000000E-002     1.4901270418926180E-006
  -3.3299999999999996E-002    -2.8928793303151552E-006
  -3.2450000000000007E-002    -6.8209435628831814E-006
  -3.1600000000000003E-002    -9.8332910205779403E-006
  -3.0750000000000000E-002    -1.1680114366018288E-005
  -2.9899999999999996E-002    -1.2329182977100055E-005
  -2.9050000000000006E-002    -1.1916450777157163E-005
  -2.8200000000000003E-002    -1.0658818435502874E-005
  -2.7349999999999999E-002    -8.7581218848702097E-006
  -2.6499999999999996E-002    -6.3282645200546989E-006
  -2.5650000000000006E-002    -3.3705900087188884E-006
  -2.4800000000000003E-002     1.9195325385018954E-007
  -2.3949999999999999E-002     4.4299083901381069E-006
  -2.3099999999999996E-002     9.2969865756434767E-006
  -2.2250000000000006E-002     1.4530505308694230E-005
  -2.1400000000000002E-002     1.9599353193530439E-005
  -2.0549999999999999E-002     2.3726062425291298E-005
  -1.9699999999999995E-002     2.5990730962188890E-005
  -1.8850000000000006E-002     2.5502375986785340E-005
  -1.8000000000000002E-002     2.1603466704054610E-005
  -1.7149999999999999E-002     1.4062012643706993E-005
  -1.6299999999999995E-002     3.2050918620096980E-006
  -1.5450000000000005E-002    -1.0040832145334978E-005
  -1.4600000000000002E-002    -2.4218250492548993E-005
  -1.3749999999999998E-002    -3.7508411062406960E-005
  -1.2899999999999995E-002    -4.7975494284290717E-005
  -1.2050000000000005E-002    -5.3845552408455584E-005
  -1.1200000000000002E-002    -5.3776177929357169E-005
  -1.0349999999999998E-002    -4.7077944783030730E-005
  -9.5000000000000084E-003    -3.3858134543325049E-005
  -8.6500000000000049E-003    -1.5069085384442322E-005
  -7.8000000000000014E-003     7.5454661395873056E-006
  -6.9499999999999978E-003     3.1603718396814464E-005
  -6.1000000000000082E-003     5.4327616866328807E-005
  -5.2500000000000047E-003     7.2855309193550787E-005
  -4.4000000000000011E-003     8.4594527819366647E-005
  -3.5499999999999976E-003     8.7577906702084092E-005
  -2.7000000000000079E-003     8.0771419584313870E-005
  -1.8500000000000044E-003     6.4284137514174713E-005
  -1.0000000000000009E-003     3.9434182783229066E-005
  -1.4999999999999736E-004     8.6447408627487473E-006
   6.9999999999999230E-004    -2.4827719899933856E-005
   1.5499999999999958E-003    -5.7297662159025518E-005
   2.3999999999999994E-003    -8.5122407092085589E-005
   3.2500000000000029E-003    -1.0516239925236245E-004
   4.0999999999999925E-003    -1.1515172951048912E-004
   4.9499999999999961E-003    -1.1392474445852559E-004
   5.7999999999999996E-003    -1.0147820327701215E-004
   6.6499999999999893E-003    -7.8887593677181477E-005
   7.5000000000000067E-003    -4.8124329725414658E-005
   8.3499999999999963E-003    -1.1830771782976807E-005
   9.1999999999999860E-003     2.6899941610095919E-005
   1.0050000000000003E-002     6.4721303019813633E-005
   1.0899999999999993E-002     9.8216900323486780E-005
   1.1750000000000010E-002     1.2410544215901744E-004
   1.2600000000000000E-002     1.3949872854023834E-004
   1.3449999999999990E-002     1.4222387712496603E-004
   1.4300000000000007E-002     1.3118032572539018E-004
   1.5149999999999997E-002     1.0665928847702577E-004
   1.5999999999999986E-002     7.0528213828222367E-005
   1.6850000000000004E-002     2.6187576182656476E-005
   1.7699999999999994E-002    -2.1750988678267290E-005
   1.8549999999999983E-002    -6.8049023819397991E-005
   1.9400000000000001E-002    -1.0759312586781007E-004
   2.0249999999999990E-002    -1.3616156144047049E-004
   2.1100000000000008E-002    -1.5103246631698082E-004
   2.1949999999999997E-002    -1.5129464669769201E-004
   2.2799999999999987E-002    -1.3779714046316914E-004
   2.3650000000000004E-002    -1.1277386127302852E-004
   2.4499999999999994E-002    -7.9273157850510479E-005
   2.5349999999999984E-002    -4.0570881733129360E-005
   2.6200000000000001E-002     2.6179926187848788E-007
   2.7049999999999991E-002     4.0531866559199393E-005
   2.7900000000000008E-002     7.7840282338042553E-005
   2.8749999999999998E-002     1.0984719057829069E-004
   2.9599999999999987E-002     1.3406142131772622E-004
   3.0450000000000005E-002     1.4782975501001773E-004
   3.1299999999999994E-002     1.4863579048836432E-004
   3.2149999999999984E-002     1.3469118993576895E-004
   3.3000000000000002E-002     1.0567399540564532E-004
   3.3849999999999991E-002     6.3370066207946323E-005
   3.4700000000000009E-002     1.1953651917838869E-005
   3.5549999999999998E-002    -4.2284959013019812E-005
   3.6399999999999988E-002    -9.1808953209953717E-005
   3.7250000000000005E-002    -1.2916521936521440E-004
   3.8099999999999995E-002    -1.4847863556308427E-004
   3.8949999999999985E-002    -1.4673401207376645E-004
   3.9800000000000002E-002    -1.2449794444082025E-004
   4.0649999999999992E-002    -8.5866302237863230E-005
   4.1500000000000009E-002    -3.7627936778735506E-005
   4.2349999999999999E-002     1.2150980182900607E-005
   4.3199999999999988E-002     5.5761875296788714E-005
   4.4050000000000006E-002     8.7295036790143642E-005
   4.4899999999999995E-002     1.0354431443848017E-004
   4.5749999999999985E-002     1.0419981926236785E-004
   4.6600000000000003E-002     9.1366005744822741E-005
   4.7449999999999992E-002     6.8630577682285334E-005
   4.8299999999999982E-002     4.0015078327425209E-005
   4.9149999999999999E-002     9.1362021659629037E-006
   4.9999999999999989E-002    -2.1209669347845758E-005
   5.0850000000000006E-002    -4.8999788936980614E-005
   5.1699999999999996E-002    -7.2610299441641985E-005
   5.2549999999999986E-002    -9.0372354201216339E-005
   5.3400000000000003E-002    -1.0032121777067243E-004
   5.4249999999999993E-002    -1.0032229533156914E-004
   5.5099999999999982E-002    -8.8595759152852426E-005
   5.5950000000000000E-002    -6.4484918379803969E-005
   5.6799999999999989E-002    -2.9193225955584463E-005
   5.7650000000000007E-002     1.3812585712206142E-005
   5.8499999999999996E-002     5.8968444297427471E-005
   5.9349999999999986E-002     9.9399659554097171E-005
   6.0200000000000004E-002     1.2820629612032719E-004
   6.1049999999999993E-002     1.3992729468165579E-004
   6.1899999999999983E-002     1.3181766421381600E-004
   6.2750000000000000E-002     1.0458114856372815E-004
   6.3599999999999990E-002     6.2337371537036078E-005
   6.4450000000000007E-002     1.1841709935019952E-005
   6.5299999999999997E-002    -3.8886944961664615E-005
   6.6149999999999987E-002    -8.2143176223303937E-005
   6.7000000000000004E-002    -1.1198346776468385E-004
   6.7849999999999994E-002    -1.2517146011551200E-004
   6.8699999999999983E-002    -1.2144731220038190E-004
   6.9550000000000001E-002    -1.0316086273616253E-004
   7.0399999999999990E-002    -7.4383079764721720E-005
   7.1249999999999980E-002    -3.9848490637334934E-005
   7.2099999999999997E-002    -3.9841380709646976E-006
   7.2949999999999987E-002     2.9783758167805260E-005
   7.3800000000000004E-002     5.9261868852618142E-005
   7.4649999999999994E-002     8.3381045009389113E-005
   7.5499999999999984E-002     1.0178813853730551E-004
   7.6350000000000001E-002     1.1445070605774039E-004
   7.7199999999999991E-002     1.2130195806151799E-004
   7.8049999999999981E-002     1.2217591535830849E-004
   7.8899999999999998E-002     1.1694436611135909E-004
   7.9749999999999988E-002     1.0584513055029285E-004
   8.0600000000000005E-002     8.9839564665649869E-005
   8.1449999999999995E-002     7.0909917995356253E-005
   8.2299999999999984E-002     5.2119171090717298E-005
   8.3150000000000002E-002     3.7538201186973242E-005
   8.3999999999999991E-002     3.1833727605991488E-005
   8.4849999999999981E-002     3.9729911832246548E-005
   8.5699999999999998E-002     6.5504166621671608E-005
   8.6549999999999988E-002     1.1250772548337078E-004
   8.7400000000000005E-002     1.8268530622811275E-004
   8.8249999999999995E-002     2.7654100172284305E-004
   8.9099999999999985E-002     3.9315270686107767E-004
   8.9950000000000002E-002     5.3028323573906574E-004
   9.0799999999999992E-002     6.8459264110059496E-004
   9.1649999999999981E-002     8.5204028610521014E-004
   9.2499999999999999E-002     1.0281228172867778E-003
   9.3349999999999989E-002     1.2087419450272660E-003
   9.4200000000000006E-002     1.3906783187082627E-003
   9.5049999999999996E-002     1.5726649386353455E-003
   9.5899999999999985E-002     1.7563312896904919E-003
   9.6750000000000003E-002     1.9468439441605826E-003
   9.7599999999999992E-002     2.1538737506254240E-003
   9.8449999999999982E-002     2.3910783311611597E-003
   9.9299999999999999E-002     2.6751366020845492E-003
  0.10014999999999999          3.0231131708739118E-003
  0.10099999999999998          3.4509366875056825E-003
  0.10185000000000000          3.9698625426104377E-003
  0.10269999999999999          4.5846500265451272E-003
  0.10355000000000000          5.2929291267821239E-003
  0.10439999999999999          6.0853440281160602E-003
  0.10524999999999998          6.9473728543940697E-003
  0.10610000000000000          7.8639062662749035E-003
  0.10694999999999999          8.8230541035213272E-003
  0.10779999999999998          9.8182418634796056E-003
  0.10865000000000000          1.0851512730448855E-002
  0.10949999999999999          1.1934367401868064E-002
  0.11035000000000000          1.3083819251670514E-002
  0.11119999999999999          1.4318831533709737E-002
  0.11204999999999998          1.5659143232568475E-002
  0.11290000000000000          1.7116455310371991E-002
  0.11374999999999999          1.8696003294521455E-002
  0.11459999999999998          2.0394591266271338E-002
  0.11545000000000000          2.2203123576228861E-002
  0.11629999999999999          2.4102920761608602E-002
  0.11715000000000000          2.6082950143519561E-002
  0.11799999999999999          2.8124706809530858E-002
  0.11884999999999998          3.0222105729022373E-002
  0.11970000000000000          3.2366979724411896E-002
  0.12054999999999999          3.4549469878076396E-002
  0.12139999999999998          3.6763123448925461E-002
  0.12225000000000000          3.8990100833370248E-002
  0.12309999999999999          4.1208887839154856E-002
  0.12395000000000000          4.3394825183712654E-002
  0.12479999999999999          4.5508599035543947E-002
  0.12564999999999998          4.7512235330371237E-002
  0.12650000000000000          4.9351363561495033E-002
  0.12734999999999999          5.0996357866942552E-002
  0.12819999999999998          5.2402189374124941E-002
  0.12905000000000000          5.3527413294878916E-002
  0.12989999999999999          5.4317073908295023E-002
  0.13074999999999998          5.4724690928437722E-002
  0.13159999999999999          5.4704935535331851E-002
  0.13245000000000001          5.4205556329858379E-002
  0.13329999999999997          5.3168993032780928E-002
  0.13414999999999999          5.1565877009686172E-002
  0.13500000000000001          4.9341862417506710E-002
  0.13584999999999997          4.6442628263313197E-002
  0.13669999999999999          4.2838711675000939E-002
  0.13755000000000001          3.8495552227107203E-002
  0.13839999999999997          3.3338729359507067E-002
  0.13924999999999998          2.7320907209633774E-002
  0.14010000000000000          2.0394191998856316E-002
  0.14094999999999996          1.2510843170714884E-002
  0.14179999999999998          3.6270490502880118E-003
  0.14265000000000000         -6.2658079269958334E-003
  0.14350000000000002         -1.7154932221580897E-002
  0.14434999999999998         -2.9025261655454066E-002
  0.14520000000000000         -4.1840417937513114E-002
  0.14605000000000001         -5.5507611262823192E-002
  0.14689999999999998         -7.0003981501628190E-002
  0.14774999999999999         -8.5202541485147693E-002
  0.14860000000000001        -0.10102619141739552
  0.14944999999999997        -0.11737193772189630
  0.15029999999999999        -0.13408416802278611
  0.15115000000000001        -0.15109895934458184
  0.15199999999999997        -0.16831281892637073
  0.15284999999999999        -0.18549276925581651
  0.15370000000000000        -0.20254824793447460
  0.15454999999999997        -0.21923920201358726
  0.15539999999999998        -0.23532918097815680
  0.15625000000000000        -0.25059512275039048
  0.15709999999999996        -0.26480342017036890
  0.15794999999999998        -0.27782920464086935
  0.15880000000000000        -0.28933923589282401
  0.15965000000000001        -0.29919437425115675
  0.16049999999999998        -0.30723561615531414
  0.16134999999999999        -0.31318871744793869
  0.16220000000000001        -0.31696176647948199
  0.16304999999999997        -0.31832869024757793
  0.16389999999999999        -0.31713331557492952
  0.16475000000000001        -0.31317661183353546
  0.16559999999999997        -0.30640220559754805
  0.16644999999999999        -0.29676085674219066
  0.16730000000000000        -0.28415634239506665
  0.16814999999999997        -0.26857786823146029
  0.16899999999999998        -0.25007736012111720
  0.16985000000000000        -0.22864433729185724
  0.17069999999999996        -0.20440441299850010
  0.17154999999999998        -0.17737222503989705
  0.17240000000000000        -0.14783540788994773
  0.17325000000000002        -0.11582366521144601
  0.17409999999999998         -8.1623664959438763E-002
  0.17494999999999999         -4.5451159323478485E-002
  0.17580000000000001         -7.5808914382869026E-003
  0.17664999999999997          3.1645224973990568E-002
  0.17749999999999999          7.1941718735007931E-002
  0.17835000000000001         0.11293827743130556
  0.17919999999999997         0.15423500965764858
  0.18004999999999999         0.19549214144935326
  0.18090000000000001         0.23631746881599208
  0.18174999999999997         0.27632868615503769
  0.18259999999999998         0.31511295241314852
  0.18345000000000000         0.35234999981561260
  0.18429999999999996         0.38764056871471297
  0.18514999999999998         0.42059666612579039
  0.18600000000000000         0.45089409323763330
  0.18684999999999996         0.47822412326871777
  0.18769999999999998         0.50228383578730851
  0.18855000000000000         0.52280345725347555
  0.18940000000000001         0.53957344325104106
  0.19024999999999997         0.55233301558836256
  0.19109999999999999         0.56097799392878400
  0.19195000000000001         0.56539118915581854
  0.19279999999999997         0.56555735390720918
  0.19364999999999999         0.56145730970924179
  0.19450000000000001         0.55308477420786828
  0.19534999999999997         0.54058471232955585
  0.19619999999999999         0.52398499785770269
  0.19705000000000000         0.50354764261002494
  0.19789999999999996         0.47928734952252378
  0.19874999999999998         0.45147594705935179
  0.19960000000000000         0.42037704182047581
  0.20044999999999996         0.38621162240471152
  0.20129999999999998         0.34945866111495871
  0.20215000000000000         0.31041574529778820
  0.20300000000000001         0.26946318775981021
  0.20384999999999998         0.22693951894825454
  0.20469999999999999         0.18325926897823844
  0.20555000000000001         0.13878843120054313
  0.20639999999999997          9.3924272690924918E-002
  0.20724999999999999          4.9145552837088213E-002
  0.20810000000000001          4.6662099535910231E-003
  0.20894999999999997         -3.9215491356115906E-002
  0.20979999999999999         -8.1986922053472785E-002
  0.21065000000000000        -0.12347107844222054
  0.21149999999999997        -0.16315683461378222
  0.21234999999999998        -0.20079933307348313
  0.21320000000000000        -0.23611263302480173
  0.21404999999999996        -0.26874550709653433
  0.21489999999999998        -0.29848213136971985
  0.21575000000000000        -0.32523018100148621
  0.21659999999999996        -0.34886526706749516
  0.21744999999999998        -0.36935895619549336
  0.21829999999999999        -0.38661714376297723
  0.21915000000000001        -0.40065363434835777
  0.21999999999999997        -0.41144710152298891
  0.22084999999999999        -0.41908736044396261
  0.22170000000000001        -0.42359024156264491
  0.22254999999999997        -0.42495001180809211
  0.22339999999999999        -0.42321762446177313
  0.22425000000000000        -0.41847090801879594
  0.22509999999999997        -0.41091593540905480
  0.22594999999999998        -0.40060187437752609
  0.22680000000000000        -0.38787732902574162
  0.22764999999999996        -0.37292531443210158
  0.22849999999999998        -0.35609135777883172
  0.22935000000000000        -0.33756460802943322
  0.23019999999999996        -0.31765237381587558
  0.23104999999999998        -0.29663005479937599
  0.23190000000000000        -0.27466956146233756
  0.23275000000000001        -0.25191144402859550
  0.23359999999999997        -0.22849316600099487
  0.23444999999999999        -0.20462562837779269
  0.23530000000000001        -0.18046600109598296
  0.23614999999999997        -0.15625239704513272
  0.23699999999999999        -0.13215479464839047
  0.23785000000000001        -0.10846620948487233
  0.23869999999999997         -8.5379920348270327E-002
  0.23954999999999999         -6.3058871550621287E-002
  0.24040000000000000         -4.1705857137836054E-002
  0.24124999999999996         -2.1433850130748628E-002
  0.24209999999999998         -2.3581646870738503E-003
  0.24295000000000000          1.5493436374446182E-002
  0.24379999999999996          3.2118943105413272E-002
  0.24464999999999998          4.7438074693433072E-002
  0.24550000000000000          6.1475902173489541E-002
  0.24634999999999996          7.4206741931956061E-002
  0.24719999999999998          8.5609402147113822E-002
  0.24804999999999999          9.5714868358306254E-002
  0.24890000000000001         0.10448320852507628
  0.24974999999999997         0.11194744938345565
  0.25059999999999999         0.11808466012686733
  0.25145000000000001         0.12296385142251062
  0.25229999999999997         0.12657874282713494
  0.25314999999999999         0.12900268854027885
  0.25400000000000000         0.13032541045342416
  0.25484999999999997         0.13061942534075000
  0.25569999999999998         0.12996167498803185
  0.25655000000000000         0.12848897963565575
  0.25739999999999996         0.12627996066223815
  0.25824999999999998         0.12341808326310456
  0.25910000000000000         0.11994707329145901
  0.25994999999999996         0.11594909294132134
  0.26079999999999998         0.11151227149645376
  0.26164999999999999         0.10666391673904024
  0.26249999999999996         0.10150372089431435
  0.26334999999999997          9.6082978800776236E-002
  0.26419999999999999          9.0485641961117774E-002
  0.26505000000000001          8.4789637288564687E-002
  0.26589999999999997          7.9067081564159744E-002
  0.26674999999999999          7.3348247556386956E-002
  0.26760000000000000          6.7684580958341470E-002
  0.26844999999999997          6.2054513974969937E-002
  0.26929999999999998          5.6484386529007294E-002
  0.27015000000000000          5.0985043347446607E-002
  0.27099999999999996          4.5586276064241531E-002
  0.27184999999999998          4.0341188413575160E-002
  0.27270000000000000          3.5305192838805781E-002
  0.27354999999999996          3.0538830772690592E-002
  0.27439999999999998          2.6115856042264813E-002
  0.27524999999999999          2.2069008922341791E-002
  0.27609999999999996          1.8383577862127104E-002
  0.27694999999999997          1.5046940890931372E-002
  0.27779999999999999          1.1975482209669000E-002
  0.27865000000000001          9.1307756005097086E-003
  0.27949999999999997          6.4620044450529358E-003
  0.28034999999999999          3.9653412357329686E-003
  0.28120000000000001          1.6761087863634335E-003
  0.28204999999999997         -3.6669640198555738E-004
  0.28289999999999998         -2.1295504799924516E-003
  0.28375000000000000         -3.5916197699921849E-003
  0.28459999999999996         -4.7651109550803320E-003
  0.28544999999999998         -5.6839086318790661E-003
  0.28630000000000000         -6.4308505091432615E-003
  0.28714999999999996         -7.0839325183751130E-003
  0.28799999999999998         -7.7102558513260193E-003
  0.28885000000000000         -8.3309155428241289E-003
  0.28969999999999996         -8.9467815629492818E-003
  0.29054999999999997         -9.4962800382086855E-003
  0.29139999999999999         -9.9182151807317692E-003
  0.29224999999999995         -1.0160609172326454E-002
  0.29309999999999997         -1.0194854756673644E-002
  0.29394999999999999         -1.0033718455332019E-002
  0.29480000000000001         -9.7308396303279164E-003
  0.29564999999999997         -9.3718696873232345E-003
  0.29649999999999999         -9.0349863772041603E-003
  0.29735000000000000         -8.7786788774316671E-003
  0.29819999999999997         -8.6247214023945171E-003
  0.29904999999999998         -8.5497411005637479E-003
  0.29990000000000000         -8.5037501855469450E-003
  0.30074999999999996         -8.4178722476825254E-003
  0.30159999999999998         -8.2308437337679421E-003
  0.30245000000000000         -7.9084565371827439E-003
  0.30329999999999996         -7.4608108555403634E-003
  0.30414999999999998         -6.9148158030637071E-003
  0.30499999999999999         -6.3301817748588861E-003
  0.30584999999999996         -5.7496225941515745E-003
  0.30669999999999997         -5.2083928502491177E-003
  0.30754999999999999         -4.7112436974694940E-003
  0.30840000000000001         -4.2543973823587575E-003
  0.30924999999999997         -3.8056744132700317E-003
  0.31009999999999999         -3.3499272014309712E-003
  0.31095000000000000         -2.8740941014374910E-003
  0.31179999999999997         -2.3856562452199861E-003
  0.31264999999999998         -1.8991363028600201E-003
  0.31350000000000000         -1.4348260828142222E-003
  0.31434999999999996         -1.0074427020128065E-003
  0.31519999999999998         -6.1729994492036252E-004
  0.31605000000000000         -2.5021169001248971E-004
  0.31689999999999996          1.0943065543688975E-004
  0.31774999999999998          4.7011021541600116E-004
  0.31859999999999999          8.2735902029311610E-004
  0.31944999999999996          1.1534790736441281E-003
  0.32029999999999997          1.4050495356242106E-003
  0.32114999999999999          1.5470129546017513E-003
  0.32199999999999995          1.5569369381903146E-003
  0.32284999999999997          1.4381330607720717E-003
  0.32369999999999999          1.2192659818349013E-003
  0.32455000000000001          9.6344815092856359E-004
  0.32539999999999997          7.3717376070713480E-004
  0.32624999999999998          5.9707917720101702E-004
  0.32710000000000000          5.6579425769300203E-004
  0.32794999999999996          6.2786461953033145E-004
  0.32879999999999998          7.3368972925403535E-004
  0.32965000000000000          8.1305465990893176E-004
  0.33049999999999996          8.0289606595351066E-004
  0.33134999999999998          6.6310675753676759E-004
  0.33220000000000000          3.9311248105247274E-004
  0.33304999999999996          3.2683922603139975E-005
  0.33389999999999997         -3.5421260605332121E-004
  0.33474999999999999         -6.9853312581335278E-004
  0.33559999999999995         -9.4356473228451659E-004
  0.33644999999999997         -1.0651465737190734E-003
  0.33729999999999999         -1.0783612886354908E-003
  0.33815000000000001         -1.0227981587983348E-003
  0.33899999999999997         -9.5711794690814473E-004
  0.33984999999999999         -9.2992101463001671E-004
  0.34070000000000000         -9.7528281058691362E-004
  0.34154999999999996         -1.0993092846111759E-003
  0.34239999999999998         -1.2817683091350682E-003
  0.34325000000000000         -1.4933098733465322E-003
  0.34409999999999996         -1.7025240510263966E-003
  0.34494999999999998         -1.8901923429968737E-003
  0.34580000000000000         -2.0537048311167492E-003
  0.34664999999999996         -2.2029242430025558E-003
  0.34749999999999998         -2.3495480702603331E-003
  0.34834999999999999         -2.5031125381105293E-003
  0.34919999999999995         -2.6660092470888615E-003
  0.35004999999999997         -2.8291116074677094E-003
  0.35089999999999999         -2.9839954972315391E-003
  0.35174999999999995         -3.1234637497748788E-003