 -0.12000000000000000          0.0000000000000000
 -0.11914999999999999          0.0000000000000000
 -0.11830000000000000          0.0000000000000000
 -0.11745000000000000          8.4937781411055833E-014
 -0.11660000000000000          2.5004934450104707E-012
 -0.11574999999999999          1.4654854855268635E-011
 -0.11490000000000000          4.5179290954923565E-011
 -0.11405000000000000          8.3330258550984998E-011
 -0.11320000000000000          6.4821764062684884E-011
 -0.11234999999999999         -1.4603818423784338E-010
 -0.11150000000000000         -7.0525753173819118E-010
 -0.11065000000000000         -1.6273107092314755E-009
 -0.10979999999999999         -2.5368413006368262E-009
 -0.10894999999999999         -2.4688883371108879E-009
 -0.10810000000000000          4.8483281908974400E-011
 -0.10725000000000000          6.3962777587185497E-009
 -0.10639999999999999          1.6695728346973695E-008
 -0.10554999999999999          2.8370849864384614E-008
 -0.10470000000000000          3.5171375446983735E-008
 -0.10385000000000000          2.7656134831239154E-008
 -0.10299999999999999         -4.0100059839411911E-009
 -0.10214999999999999         -6.4827943751744039E-008
 -0.10130000000000000         -1.4844521746896678E-007
 -0.10045000000000000         -2.3189009952760648E-007
  -9.9599999999999994E-002    -2.7500420904181562E-007
  -9.8750000000000004E-002    -2.2771592455856244E-007
  -9.7900000000000001E-002    -4.6335240196195775E-008
  -9.7049999999999997E-002     2.8343798825086009E-007
  -9.6199999999999994E-002     7.2323427116218641E-007
  -9.5349999999999990E-002     1.1681393774694183E-006
  -9.4500000000000001E-002     1.4524772429515355E-006
  -9.3649999999999997E-002     1.3820984830388360E-006
  -9.2799999999999994E-002     7.9249967839716796E-007
  -9.1950000000000004E-002    -3.7811019259940027E-007
  -9.1100000000000000E-002    -2.0215006237086001E-006
  -9.0249999999999997E-002    -3.8241783132824772E-006
  -8.9399999999999993E-002    -5.2884199141292954E-006
  -8.8549999999999990E-002    -5.8223109135405919E-006
  -8.7700000000000000E-002    -4.8920329829665750E-006
  -8.6849999999999997E-002    -2.2066915175616845E-006
  -8.5999999999999993E-002     2.1134331045799768E-006
  -8.5150000000000003E-002     7.4426451913925174E-006
  -8.4300000000000000E-002     1.2678764384405003E-005
  -8.3449999999999996E-002     1.6418435262227561E-005
  -8.2600000000000007E-002     1.7262760320868241E-005
  -8.1749999999999989E-002     1.4194639982459985E-005
  -8.0900000000000000E-002     6.9359193182132473E-006
  -8.0049999999999996E-002    -3.8194191788488161E-006
  -7.9199999999999993E-002    -1.6382868925975694E-005
  -7.8350000000000003E-002    -2.8301724760436144E-005
  -7.7499999999999999E-002    -3.6820274549261631E-005
  -7.6649999999999996E-002    -3.9483871205462075E-005
  -7.5800000000000006E-002    -3.4748720767140511E-005
  -7.4949999999999989E-002    -2.2443928016028418E-005
  -7.4099999999999999E-002    -3.9568841615597971E-006
  -7.3249999999999996E-002     1.7924932218485192E-005
  -7.2399999999999992E-002     3.9498475005814434E-005
  -7.1550000000000002E-002     5.6854886554608468E-005
  -7.0699999999999999E-002     6.6653357332020974E-005
  -6.9849999999999995E-002     6.6779914494311649E-005
  -6.9000000000000006E-002     5.6741710522553138E-005
  -6.8149999999999988E-002     3.7716702106325786E-005
  -6.7299999999999999E-002     1.2268383182829161E-005
  -6.6449999999999995E-002    -1.6181722564727201E-005
  -6.5599999999999992E-002    -4.3977720444436350E-005
  -6.4750000000000002E-002    -6.7794841374851282E-005
  -6.3899999999999998E-002    -8.5028991584054083E-005
  -6.3049999999999995E-002    -9.3961522270110653E-005
  -6.2199999999999998E-002    -9.3726036639537206E-005
  -6.1350000000000002E-002    -8.4163807816760547E-005
  -6.0499999999999998E-002    -6.5675645984618848E-005
  -5.9650000000000002E-002    -3.9158465645488456E-005
  -5.8799999999999998E-002    -6.0587182881611840E-006
  -5.7950000000000002E-002     3.1493129987304786E-005
  -5.7099999999999998E-002     7.0560035434758537E-005
  -5.6249999999999994E-002     1.0740278409052193E-004
  -5.5400000000000005E-002     1.3770510935764640E-004
  -5.4550000000000001E-002     1.5705028482940311E-004
  -5.3699999999999998E-002     1.6159727065674309E-004
  -5.2849999999999994E-002     1.4882678009032856E-004
  -5.2000000000000005E-002     1.1818175999020125E-004
  -5.1150000000000001E-002     7.1430973765828360E-005
  -5.0299999999999997E-002     1.2639667307861982E-005
  -4.9449999999999994E-002    -5.2278811832196591E-005
  -4.8600000000000004E-002    -1.1635191425809684E-004
  -4.7750000000000001E-002    -1.7251803960324151E-004
  -4.6899999999999997E-002    -2.1457754649778187E-004
  -4.6049999999999994E-002    -2.3794002586093187E-004
  -4.5200000000000004E-002    -2.4004751015595650E-004
  -4.4350000000000001E-002    -2.2044568750448335E-004
  -4.3499999999999997E-002    -1.8056684678141802E-004
  -4.2649999999999993E-002    -1.2335375847056466E-004
  -4.1800000000000004E-002    -5.2868179827085158E-005
  -4.0950000000000000E-002     2.6005209122085756E-005
  -4.0099999999999997E-002     1.0772086355765868E-004
  -3.9249999999999993E-002     1.8614741241878733E-004
  -3.8400000000000004E-002     2.5466754406739913E-004
  -3.7550000000000000E-002     3.0644032807548784E-004
  -3.6699999999999997E-002     3.3493052557274482E-004
  -3.5850000000000007E-002     3.3472819911548263E-004
  -3.5000000000000003E-002     3.0256834517514879E-004
  -3.4150000000000000E-002     2.3835371798802229E-004
  -3.3299999999999996E-002     1.4591340942295443E-004
  -3.2450000000000007E-002     3.3226218221398373E-005
  -3.1600000000000003E-002    -8.8086304720246740E-005
  -3.0750000000000000E-002    -2.0404928276209560E-004
  -2.9899999999999996E-002    -3.0027860298938424E-004
  -2.9050000000000006E-002    -3.6426980424145253E-004
  -2.8200000000000003E-002    -3.8760186522602603E-004
  -2.7349999999999999E-002    -3.6758458578815242E-004
  -2.6499999999999996E-002    -3.0795675442108519E-004
  -2.5650000000000006E-002    -2.1841341245421920E-004
  -2.4800000000000003E-002    -1.1298731342846381E-004
  -2.3949999999999999E-002    -7.5648177041437328E-006
  -2.3099999999999996E-002     8.2976501107367054E-005
  -2.2250000000000006E-002     1.4741348760568751E-004
  -2.1400000000000002E-002     1.8004489928621095E-004
  -2.0549999999999999E-002     1.8138043189864334E-004
  -1.9699999999999995E-002     1.5752095104073967E-004
  -1.8850000000000006E-002     1.1839972215656801E-004
  -1.8000000000000002E-002     7.5320903026338632E-005
  -1.7149999999999999E-002     3.8395014020242948E-005
  -1.6299999999999995E-002     1.4479123276370890E-005
  -1.5450000000000005E-002     6.0893087489829456E-006
  -1.4600000000000002E-002     1.1490708935052576E-005
  -1.3749999999999998E-002     2.5858230101664541E-005
  -1.2899999999999995E-002     4.3116349723186281E-005
  -1.2050000000000005E-002     5.7905794317466560E-005
  -1.1200000000000002E-002     6.7096404213999765E-005
  -1.0349999999999998E-002     7.0425059295365565E-005
  -9.5000000000000084E-003     7.0096039988562362E-005
  -8.6500000000000049E-003     6.9497502984935673E-005
  -7.8000000000000014E-003     7.1470365954133443E-005
  -6.9499999999999978E-003     7.6685891311958690E-005
  -6.1000000000000082E-003     8.2706065327446134E-005
  -5.2500000000000047E-003     8.4070874879473012E-005
  -4.4000000000000011E-003     7.3499792789626491E-005
  -3.5499999999999976E-003     4.3914633390222853E-005
  -2.7000000000000079E-003    -9.2332140105097374E-006
  -1.8500000000000044E-003    -8.6057118342831783E-005
  -1.0000000000000009E-003    -1.8128672584889985E-004
  -1.4999999999999736E-004    -2.8471543994937787E-004
   6.9999999999999230E-004    -3.8301543383834329E-004
   1.5499999999999958E-003    -4.6260883577954197E-004
   2.3999999999999994E-003    -5.1285921333670123E-004
   3.2500000000000029E-003    -5.2878331211075598E-004
   4.0999999999999925E-003    -5.1266710084329461E-004
   4.9499999999999961E-003    -4.7393406609538672E-004
   5.7999999999999996E-003    -4.2739677408886487E-004
   6.6499999999999893E-003    -3.9021223622648143E-004
   7.5000000000000067E-003    -3.7828741913351131E-004
   8.3499999999999963E-003    -4.0315567707237135E-004
   9.1999999999999860E-003    -4.6991560148641417E-004
   1.0050000000000003E-002    -5.7699439021980043E-004
   1.0899999999999993E-002    -7.1771201996562834E-004
   1.1750000000000010E-002    -8.8310818124334202E-004
   1.2600000000000000E-002    -1.0655343715547452E-003
   1.3449999999999990E-002    -1.2617327595300417E-003
   1.4300000000000007E-002    -1.4746068036949865E-003
   1.5149999999999997E-002    -1.7135923078344761E-003
   1.5999999999999986E-002    -1.9929411453106856E-003
   1.6850000000000004E-002    -2.3288864869796437E-003
   1.7699999999999994E-002    -2.7364834157484600E-003
   1.8549999999999983E-002    -3.2271098575986316E-003
   1.9400000000000001E-002    -3.8073921058340921E-003
   2.0249999999999990E-002    -4.4798374386198275E-003
   2.1100000000000008E-002    -5.2455576075259068E-003
   2.1949999999999997E-002    -6.1077232515677508E-003
   2.2799999999999987E-002    -7.0750103889449020E-003
   2.3650000000000004E-002    -8.1638724463801108E-003
   2.4499999999999994E-002    -9.3994262597642732E-003
   2.5349999999999984E-002    -1.0813798775659921E-002
   2.6200000000000001E-002    -1.2442719848874097E-002
   2.7049999999999991E-002    -1.4322383926171810E-002
   2.7900000000000008E-002    -1.6485022188764655E-002
   2.8749999999999998E-002    -1.8957890470866236E-002
   2.9599999999999987E-002    -2.1762627682147505E-002
   3.0450000000000005E-002    -2.4918693350542961E-002
   3.1299999999999994E-002    -2.8446592951135316E-002
   3.2149999999999984E-002    -3.2372676825259385E-002
   3.3000000000000002E-002    -3.6733145658206894E-002
   3.3849999999999991E-002    -4.1574994607543797E-002
   3.4700000000000009E-002    -4.6955233805042920E-002
   3.5549999999999998E-002    -5.2938013136202958E-002
   3.6399999999999988E-002    -5.9589217832561339E-002
   3.7250000000000005E-002    -6.6973196619005013E-002
   3.8099999999999995E-002    -7.5147201109061507E-002
   3.8949999999999985E-002    -8.4162667461377003E-002
   3.9800000000000002E-002    -9.4060892620319345E-002
   4.0649999999999992E-002   -0.10488306842792292
   4.1500000000000009E-002   -0.11666763955470796
   4.2349999999999999E-002   -0.12945705576750111
   4.3199999999999988E-002   -0.14329654183118748
   4.4050000000000006E-002   -0.15823671025915204
   4.4899999999999995E-002   -0.17432636845905899
   4.5749999999999985E-002   -0.19161429734378466
   4.6600000000000003E-002   -0.21013667353509310
   4.7449999999999992E-002   -0.22991993509956302
   4.8299999999999982E-002   -0.25097393671889695
   4.9149999999999999E-002   -0.27328825951258323
   4.9999999999999989E-002   -0.29683236974613236
   5.0850000000000006E-002   -0.32156122281620070
   5.1699999999999996E-002   -0.34740698508710344
   5.2549999999999986E-002   -0.37428908381778037
   5.3400000000000003E-002   -0.40209940873939670
   5.4249999999999993E-002   -0.43069883218776978
   5.5099999999999982E-002   -0.45992567682124369
   5.5950000000000000E-002   -0.48958416376697045
   5.6799999999999989E-002   -0.51943406213257148
   5.7650000000000007E-002   -0.54920452504596107
   5.8499999999999996E-002   -0.57858195830099701
   5.9349999999999986E-002   -0.60720176337208243
   6.0200000000000004E-002   -0.63468088158262059
   6.1049999999999993E-002   -0.66057417259453488
   6.1899999999999983E-002   -0.68441284405981340
   6.2750000000000000E-002   -0.70567462202542419
   6.3599999999999990E-002   -0.72380830578061384
   6.4450000000000007E-002   -0.73820617739643812
   6.5299999999999997E-002   -0.74822696689188239
   6.6149999999999987E-002   -0.75319660333077598
   6.7000000000000004E-002   -0.75241940570239640
   6.7849999999999994E-002   -0.74516847045510504
   6.8699999999999983E-002   -0.73068975447200057
   6.9550000000000001E-002   -0.70826242014238783
   7.0399999999999990E-002   -0.67715345489204348
   7.1249999999999980E-002   -0.63664528596387937
   7.2099999999999997E-002   -0.58605016956784384
   7.2949999999999987E-002   -0.52471469351404720
   7.3800000000000004E-002   -0.45203428566881088
   7.4649999999999994E-002   -0.36745324331256152
   7.5499999999999984E-002   -0.27051335695066764
   7.6350000000000001E-002   -0.16085166202641710
   7.7199999999999991E-002    -3.8238239942302785E-002
   7.8049999999999981E-002     9.7498543621723166E-002
   7.8899999999999998E-002    0.24627040850571486
   7.9749999999999988E-002    0.40795503933803934
   8.0600000000000005E-002    0.58216833371495291
   8.1449999999999995E-002    0.76843138561867808
   8.2299999999999984E-002    0.96601320216084863
   8.3150000000000002E-002     1.1740481717764262
   8.3999999999999991E-002     1.3914632774843207
   8.4849999999999981E-002     1.6169465399472778
   8.5699999999999998E-002     1.8489897295115953
   8.6549999999999988E-002     2.0858379186362930
   8.7400000000000005E-002     2.3255967456086086
   8.8249999999999995E-002     2.5660611318001170
   8.9099999999999985E-002     2.8049028151661064
   8.9950000000000002E-002     3.0396297260383287
   9.0799999999999992E-002     3.2675908065319526
   9.1649999999999981E-002     3.4860065303935990
   9.2499999999999999E-002     3.6919814177696049
   9.3349999999999989E-002     3.8826344088164850
   9.4200000000000006E-002     4.0549700826680510
   9.5049999999999996E-002     4.2060543194190414
   9.5899999999999985E-002     4.3329654909821036
   9.6750000000000003E-002     4.4328197603765442
   9.7599999999999992E-002     4.5028829304198306
   9.8449999999999982E-002     4.5405398226952220
   9.9299999999999999E-002     4.5433898960566381
  0.10014999999999999          4.5093191250106939
  0.10099999999999998          4.4364486556385252
  0.10185000000000000          4.3232811556889024
  0.10269999999999999          4.1687166807002498
  0.10355000000000000          3.9719610598349782
  0.10439999999999999          3.7327176350485542
  0.10524999999999998          3.4510758207474277
  0.10610000000000000          3.1277060507199939
  0.10694999999999999          2.7636797120543672
  0.10779999999999998          2.3605680731098584
  0.10865000000000000          1.9204186963749934
  0.10949999999999999          1.4458019181559156
  0.11035000000000000         0.93973982517212495
  0.11119999999999999         0.40578654740765990
  0.11204999999999998        -0.15219978489543434
  0.11290000000000000        -0.72972775658094802
  0.11374999999999999         -1.3221164355030433
  0.11459999999999998         -1.9242321811235983
  0.11545000000000000         -2.5307446353890759
  0.11629999999999999         -3.1361473004932967
  0.11715000000000000         -3.7347415173425005
  0.11799999999999999         -4.3207046786287036
  0.11884999999999998         -4.8883255447498914
  0.11970000000000000         -5.4318349867442279
  0.12054999999999999         -5.9456782761301037
  0.12139999999999998         -6.4244134352118234
  0.12225000000000000         -6.8629310369390666
  0.12309999999999999         -7.2563944067495632
  0.12395000000000000         -7.6003448066772581
  0.12479999999999999         -7.8907996013021080
  0.12564999999999998         -8.1242612923027302
  0.12650000000000000         -8.2977868639524957
  0.12734999999999999         -8.4090649281290037
  0.12819999999999998         -8.4563615674220181
  0.12905000000000000         -8.4386507293104067
  0.12989999999999999         -8.3555377200809939
  0.13074999999999998         -8.2074076155863551
  0.13159999999999999         -7.9951838846365852
  0.13245000000000001         -7.7205500091961259
  0.13329999999999997         -7.3858428224812620
  0.13414999999999999         -6.9939296959194053
  0.13500000000000001         -6.5484037616061368
  0.13584999999999997         -6.0533425937535643
  0.13669999999999999         -5.5132282541542841
  0.13755000000000001         -4.9331734562907084
  0.13839999999999997         -4.3185699685527679
  0.13924999999999998         -3.6750389607270364
  0.14010000000000000         -3.0087367565452716
  0.14094999999999996         -2.3257717129958868
  0.14179999999999998         -1.6323870911250040
  0.14265000000000000        -0.93495770850554272
  0.14350000000000002        -0.23969603589799182
  0.14434999999999998         0.44726144991640582
  0.14520000000000000          1.1199516615459459
  0.14605000000000001          1.7726285341628238
  0.14689999999999998          2.3998674967816420
  0.14774999999999999          2.9965776010994922
  0.14860000000000001          3.5582276300929934
  0.14944999999999997          4.0805963294378822
  0.15029999999999999          4.5599854884148616
  0.15115000000000001          4.9931788939822361
  0.15199999999999997          5.3776949361742883
  0.15284999999999999          5.7113536706697410
  0.15370000000000000          5.9926799787685150
  0.15454999999999997          6.2207551561471464
  0.15539999999999998          6.3952063197824893
  0.15625000000000000          6.5162062237020866
  0.15709999999999996          6.5845232589309681
  0.15794999999999998          6.6012451992388490
  0.15880000000000000          6.5682724216540027
  0.15965000000000001          6.4875851432559850
  0.16049999999999998          6.3618080836480582
  0.16134999999999999          6.1937358100642479
  0.16220000000000001          5.9866136768012410
  0.16304999999999997          5.7438286767277482
  0.16389999999999999          5.4689962487497707
  0.16475000000000001          5.1659078494672350
  0.16559999999999997          4.8385013122806138
  0.16644999999999999          4.4906897447765441
  0.16730000000000000          4.1265197131885332
  0.16814999999999997          3.7499279141046848
  0.16899999999999998          3.3648724823620855
  0.16985000000000000          2.9750785029007503
  0.17069999999999996          2.5842249183008446
  0.17154999999999998          2.1957519169483009
  0.17240000000000000          1.8128648259508955
  0.17325000000000002          1.4385783969975288
  0.17409999999999998          1.0755986917881395
  0.17494999999999999         0.72641263370748210
  0.17580000000000001         0.39317918954286057
  0.17664999999999997          7.7798979877658381E-002
  0.17749999999999999        -0.21812001037167938
  0.17835000000000001        -0.49327375894747827
  0.17919999999999997        -0.74658774457591859
  0.18004999999999999        -0.97731657495189694
  0.18090000000000001         -1.1849554384134982
  0.18174999999999997         -1.3692880898389344
  0.18259999999999998         -1.5303218117722408
  0.18345000000000000         -1.6683104814135610
  0.18429999999999996         -1.7837264112576909
  0.18514999999999998         -1.8772358277369141
  0.18600000000000000         -1.9496679527966467
  0.18684999999999996         -2.0019987495602907
  0.18769999999999998         -2.0353007059340142
  0.18855000000000000         -2.0507740487637700
  0.18940000000000001         -2.0496944607646395
  0.19024999999999997         -2.0333851933477192
  0.19109999999999999         -2.0032274057277633
  0.19195000000000001         -1.9606436423299622
  0.19279999999999997         -1.9070501648726705
  0.19364999999999999         -1.8438904481038314
  0.19450000000000001         -1.7725581947669768
  0.19534999999999997         -1.6944174648880219
  0.19619999999999999         -1.6107607847484555
  0.19705000000000000         -1.5228227467788649
  0.19789999999999996         -1.4317601558464097
  0.19874999999999998         -1.3386389242841130
  0.19960000000000000         -1.2444775983358130
  0.20044999999999996         -1.1501794446709563
  0.20129999999999998         -1.0565902569519261
  0.20215000000000000        -0.96446237173084493
  0.20300000000000001        -0.87446240461533309
  0.20384999999999998        -0.78719085165902269
  0.20469999999999999        -0.70316077171632974
  0.20555000000000001        -0.62278810216948244
  0.20639999999999997        -0.54640211752871193
  0.20724999999999999        -0.47426043366580428
  0.20810000000000001        -0.40654045349114665
  0.20894999999999997        -0.34335099071323472
  0.20979999999999999        -0.28475171898032103
  0.21065000000000000        -0.23073853831440455
  0.21149999999999997        -0.18127699074818499
  0.21234999999999998        -0.13629090632901991
  0.21320000000000000         -9.5662885761771677E-002
  0.21404999999999996         -5.9248619218585860E-002
  0.21489999999999998         -2.6862779743014306E-002
  0.21575000000000000          1.6891583145375033E-003
  0.21659999999999996          2.6625850571864840E-002
  0.21744999999999998          4.8183613633302494E-002
  0.21829999999999999          6.6590141108490250E-002
  0.21915000000000001          8.2084422840261462E-002
  0.21999999999999997          9.4908419153149154E-002
  0.22084999999999999         0.10528815727005661
  0.22170000000000001         0.11345744938434105
  0.22254999999999997         0.11962523133668665
  0.22339999999999999         0.12398911722797235
  0.22425000000000000         0.12675233638247085
  0.22509999999999997         0.12809825390497717
  0.22594999999999998         0.12820624282693657
  0.22680000000000000         0.12723927566574661
  0.22764999999999996         0.12534535116571294
  0.22849999999999998         0.12268319122057147
  0.22935000000000000         0.11939882921778766
  0.23019999999999996         0.11562857861574205
  0.23104999999999998         0.11149203240548555
  0.23190000000000000         0.10710099670756179
  0.23275000000000001         0.10254609780825323
  0.23359999999999997          9.7896723733285909E-002
  0.23444999999999999          9.3207529993334454E-002
  0.23530000000000001          8.8510990015677221E-002
  0.23614999999999997          8.3826201293187561E-002
  0.23699999999999999          7.9177641586139824E-002
  0.23785000000000001          7.4585349172391291E-002
  0.23869999999999997          7.0079507962488657E-002
  0.23954999999999999          6.5697036578013832E-002
  0.24040000000000000          6.1476701807521628E-002
  0.24124999999999996          5.7451825937401779E-002
  0.24209999999999998          5.3655643926547966E-002
  0.24295000000000000          5.0100736441412802E-002
  0.24379999999999996          4.6780929069393615E-002
  0.24464999999999998          4.3682837805463275E-002
  0.24550000000000000          4.0778585244391569E-002
  0.24634999999999996          3.8042604727969928E-002
  0.24719999999999998          3.5451097790377611E-002
  0.24804999999999999          3.2989133541923323E-002
  0.24890000000000001          3.0660331989300467E-002
  0.24974999999999997          2.8462488198123255E-002
  0.25059999999999999          2.6407071068241035E-002
  0.25145000000000001          2.4501730562930132E-002
  0.25229999999999997          2.2745225995452898E-002
  0.25314999999999999          2.1133674733489972E-002
  0.25400000000000000          1.9655030191251196E-002
  0.25484999999999997          1.8290250685036799E-002
  0.25569999999999998          1.7024992133858202E-002
  0.25655000000000000          1.5838700750484123E-002
  0.25739999999999996          1.4721489131984011E-002
  0.25824999999999998          1.3664870934676263E-002
  0.25910000000000000          1.2662494190285645E-002
  0.25994999999999996          1.1717588003178164E-002
  0.26079999999999998          1.0832285060048692E-002
  0.26164999999999999          1.0011868138778763E-002
  0.26249999999999996          9.2617977298779918E-003
  0.26334999999999997          8.5929034927892962E-003
  0.26419999999999999          8.0132291467592629E-003
  0.26505000000000001          7.5314461940129487E-003
  0.26589999999999997          7.1539134866519683E-003
  0.26674999999999999          6.8790223702980512E-003
  0.26760000000000000          6.7002988699893171E-003
  0.26844999999999997          6.6059954040566075E-003
  0.26929999999999998          6.5782219309312960E-003
  0.27015000000000000          6.6056026553112674E-003
  0.27099999999999996          6.6738734852302972E-003
  0.27184999999999998          6.7826905440820234E-003
  0.27270000000000000          6.9380947442819439E-003
  0.27354999999999996          7.1490906504981799E-003
  0.27439999999999998          7.4283066253627537E-003
  0.27524999999999999          7.7827980697332492E-003
  0.27609999999999996          8.2077770613110008E-003
  0.27694999999999997          8.6886877623377993E-003
  0.27779999999999999          9.1949681993293841E-003
  0.27865000000000001          9.6918478942374150E-003
  0.27949999999999997          1.0139264310036471E-002
  0.28034999999999999          1.0503762332204333E-002
  0.28120000000000001          1.0764898176248790E-002
  0.28204999999999997          1.0913876584668497E-002
  0.28289999999999998          1.0956330130327077E-002
  0.28375000000000000          1.0907893776580326E-002
  0.28459999999999996          1.0789464727927212E-002
  0.28544999999999998          1.0617299730200098E-002
  0.28630000000000000          1.0400727805259810E-002
  0.28714999999999996          1.0139370485599940E-002
  0.28799999999999998          9.8223432206703855E-003
  0.28885000000000000          9.4314351169303475E-003
  0.28969999999999996          8.9472649995519654E-003
  0.29054999999999997          8.3554312490426823E-003
  0.29139999999999999          7.6477191355471871E-003
  0.29224999999999995          6.8291272922694820E-003
  0.29309999999999997          5.9169260519361796E-003
  0.29394999999999999          4.9367757806515365E-003
  0.29480000000000001          3.9236702141728346E-003
  0.29564999999999997          2.9118416132909112E-003
  0.29649999999999999          1.9327843770375139E-003
  0.29735000000000000          1.0093389699789889E-003
  0.29819999999999997          1.5447400793395919E-004
  0.29904999999999998         -6.3049159687313485E-004
  0.29990000000000000         -1.3539188869147933E-003
  0.30074999999999996         -2.0252991851217256E-003
  0.30159999999999998         -2.6542033541986500E-003
  0.30245000000000000         -3.2430996723015197E-003
  0.30329999999999996         -3.7853195135552991E-003
  0.30414999999999998         -4.2631853824546878E-003
  0.30499999999999999         -4.6539247459456839E-003
  0.30584999999999996         -4.9353608552124353E-003
  0.30669999999999997         -5.0920481391924233E-003
  0.30754999999999999         -5.1200986085615874E-003
  0.30840000000000001         -5.0322217610565909E-003
  0.30924999999999997         -4.8549249404158676E-003
  0.31009999999999999         -4.6238446034969774E-003
  0.31095000000000000         -4.3741648008241369E-003
  0.31179999999999997         -4.1323744169257234E-003
  0.31264999999999998         -3.9102823224271303E-003
  0.31350000000000000         -3.7025667486279487E-003
  0.31434999999999996         -3.4874124057061879E-003
  0.31519999999999998         -3.2374464901781200E-003
  0.31605000000000000         -2.9253119524665387E-003
  0.31689999999999996         -2.5370003001045603E-003
  0.31774999999999998         -2.0723841157837511E-003
  0.31859999999999999         -1.5507365809073010E-003
  0.31944999999999996         -1.0017726289810582E-003
  0.32029999999999997         -4.6122764219913787E-004
  0.32114999999999999          4.3984712795318921E-005
  0.32199999999999995          4.9896660886839461E-004
  0.32284999999999997          9.0803146762955022E-004
  0.32369999999999999          1.2900782311712189E-003
  0.32455000000000001          1.6736172381832688E-003
  0.32539999999999997          2.0871097158439915E-003
  0.32624999999999998          2.5484311522023574E-003
  0.32710000000000000          3.0627351007216069E-003
  0.32794999999999996          3.6171807979107420E-003
  0.32879999999999998          4.1880564213633009E-003
  0.32965000000000000          4.7453427359582271E-003
  0.33049999999999996          5.2637524898548164E-003
  0.33134999999999998          5.7253419049124255E-003
  0.33220000000000000          6.1279727505967304E-003
  0.33304999999999996          6.4775170886204395E-003
  0.33389999999999997          6.7868801574789417E-003
  0.33474999999999999          7.0672038716131300E-003
  0.33559999999999995          7.3220999597138521E-003
  0.33644999999999997          7.5435745763210021E-003
  0.33729999999999999          7.7122744158648407E-003
  0.33815000000000001          7.8032027922087296E-003
  0.33899999999999997          7.7900090751047944E-003
  0.33984999999999999          7.6530490744220903E-003
  0.34070000000000000          7.3832670425087784E-003
  0.34154999999999996          6.9851245387594629E-003
  0.34239999999999998          6.4723999683515571E-003
  0.34325000000000000          5.8653621325856411E-003
  0.34409999999999996          5.1852478753363533E-003
  0.34494999999999998          4.4495489741677363E-003
  0.34580000000000000          3.6692122853779529E-003
  0.34664999999999996          2.8505388229628425E-003
  0.34749999999999998          1.9970203274808167E-003
  0.34834999999999999          1.1121782629808542E-003
  0.34919999999999995          2.0485119544663526E-004
  0.35004999999999997         -7.1144413782240875E-004
  0.35089999999999999         -1.6181924141192708E-003
  0.35174999999999995         -2.4953584324775096E-003
  0.35259999999999997         -3.3239933374460333E-003
  0.35344999999999999         -4.0902658168289014E-003
  0.35430000000000000         -4.7853436547314271E-003
  0.35514999999999997         -5.4063044109700815E-003
  0.35599999999999998         -5.9543367273732495E-003
  0.35685000000000000         -6.4281689794615975E-003
  0.35769999999999996         -6.8238942610708295E-003
  0.35854999999999998         -7.1322572219855163E-003
  0.35940000000000000         -7.3392838319225363E-003