 -0.12000000000000000          0.0000000000000000
 -0.11914999999999999          0.0000000000000000
 -0.11830000000000000          0.0000000000000000
 -0.11745000000000000          0.0000000000000000
 -0.11660000000000000          0.0000000000000000
 -0.11574999999999999          0.0000000000000000
 -0.11490000000000000          0.0000000000000000
 -0.11405000000000000          2.8851295097941712E-024
 -0.11320000000000000          3.4542103387681901E-023
 -0.11234999999999999          2.0876073734550128E-022
 -0.11150000000000000          8.3064633676792690E-022
 -0.11065000000000000          2.3564042178731993E-021
 -0.10979999999999999          4.6614406775114966E-021
 -0.10894999999999999          4.7381720607138082E-021
 -0.10810000000000000         -7.6130641010068293E-021
 -0.10725000000000000         -5.4173274685930202E-020
 -0.10639999999999999         -1.6588554705027732E-019
 -0.10554999999999999         -3.6074272312463940E-019
 -0.10470000000000000         -5.8772363140394152E-019
 -0.10385000000000000         -6.3544761532704012E-019
 -0.10299999999999999         -4.0707253196446624E-020
 -0.10214999999999999          1.9090174201041232E-018
 -0.10130000000000000          5.9275643655947121E-018
 -0.10045000000000000          1.2083092607364499E-017
  -9.9599999999999994E-002     1.8724750298065775E-017
  -9.8750000000000004E-002     2.1263936208062742E-017
  -9.7900000000000001E-002     1.1554605826836094E-017
  -9.7049999999999997E-002    -2.0935147502555194E-017
  -9.6199999999999994E-002    -8.4868647635871808E-017
  -9.5349999999999990E-002    -1.7907972077299602E-016
  -9.4500000000000001E-002    -2.8202190509080410E-016
  -9.3649999999999997E-002    -3.4245531529230950E-016
  -9.2799999999999994E-002    -2.7809797140220992E-016
  -9.1950000000000004E-002     9.4817955188079444E-018
  -9.1100000000000000E-002     5.9724320750992528E-016
  -9.0249999999999997E-002     1.4806081923195922E-015
  -8.9399999999999993E-002     2.5031902375950340E-015
  -8.8549999999999990E-002     3.3032707029459581E-015
  -8.7700000000000000E-002     3.3160148771151498E-015
  -8.6849999999999997E-002     1.8720464088727083E-015
  -8.5999999999999993E-002    -1.5834029743225749E-015
  -8.5150000000000003E-002    -7.1648447162845044E-015
  -8.4300000000000000E-002    -1.4184631752986519E-014
  -8.3449999999999996E-002    -2.0884881347296392E-014
  -8.2600000000000007E-002    -2.4432928698734985E-014
  -8.1749999999999989E-002    -2.1341499390730612E-014
  -8.0900000000000000E-002    -8.3958108397108045E-015
  -8.0049999999999996E-002     1.5983881167208813E-014
  -7.9199999999999993E-002     5.0220936832055547E-014
  -7.8350000000000003E-002     8.8380184359928254E-014
  -7.7499999999999999E-002     1.1988204305562523E-013
  -7.6649999999999996E-002     1.3068534724797643E-013
  -7.5800000000000006E-002     1.0622745982250415E-013
  -7.4949999999999989E-002     3.5929885969837733E-014
  -7.4099999999999999E-002    -8.1537564042181802E-014
  -7.3249999999999996E-002    -2.3362969769986837E-013
  -7.2399999999999992E-002    -3.9168443856611806E-013
  -7.1550000000000002E-002    -5.1272487315341041E-013
  -7.0699999999999999E-002    -5.4630334645715284E-013
  -6.9849999999999995E-002    -4.4618195602361327E-013
  -6.9000000000000006E-002    -1.8509194712020067E-013
  -6.8149999999999988E-002     2.3069361645596125E-013
  -6.7299999999999999E-002     7.5123290392265271E-013
  -6.6449999999999995E-002     1.2815128528136396E-012
  -6.5599999999999992E-002     1.6918220530467333E-012
  -6.4750000000000002E-002     1.8404972734376583E-012
  -6.3899999999999998E-002     1.6063786162116710E-012
  -6.3049999999999995E-002     9.2497103511769867E-013
  -6.2199999999999998E-002    -1.8016848252333061E-013
  -6.1350000000000002E-002    -1.5800201491443635E-012
  -6.0499999999999998E-002    -3.0442756471925231E-012
  -5.9650000000000002E-002    -4.2707520142680405E-012
  -5.8799999999999998E-002    -4.9380356293685126E-012
  -5.7950000000000002E-002    -4.7731564258827929E-012
  -5.7099999999999998E-002    -3.6209590596800623E-012
  -5.6249999999999994E-002    -1.4992823695844069E-012
  -5.5400000000000005E-002     1.3749303498700602E-012
  -5.4550000000000001E-002     4.5985723215375411E-012
  -5.3699999999999998E-002     7.6364472611795817E-012
  -5.2849999999999994E-002     9.9092291483012139E-012
  -5.2000000000000005E-002     1.0899607573705914E-011
  -5.1150000000000001E-002     1.0255500982477587E-011
  -5.0299999999999997E-002     7.8684468287651745E-012
  -4.9449999999999994E-002     3.9097461649468263E-012
  -4.8600000000000004E-002    -1.1843050766238731E-012
  -4.7750000000000001E-002    -6.7755711584820302E-012
  -4.6899999999999997E-002    -1.2122390518395078E-011
  -4.6049999999999994E-002    -1.6492201144853513E-011
  -4.5200000000000004E-002    -1.9265386640900169E-011
  -4.4350000000000001E-002    -2.0010699157407365E-011
  -4.3499999999999997E-002    -1.8521353400082321E-011
  -4.2649999999999993E-002    -1.4811882973449945E-011
  -4.1800000000000004E-002    -9.0865979693623708E-012
  -4.0950000000000000E-002    -1.6971761677017391E-012
  -4.0099999999999997E-002     6.8921334429095278E-012
  -3.9249999999999993E-002     1.6118829727867251E-011
  -3.8400000000000004E-002     2.5313761385450482E-011
  -3.7550000000000000E-002     3.3680228337977710E-011
  -3.6699999999999997E-002     4.0281385306873209E-011
  -3.5850000000000007E-002     4.4061280563953114E-011
  -3.5000000000000003E-002     4.3921519077184824E-011
  -3.4150000000000000E-002     3.8863430723443690E-011
  -3.3299999999999996E-002     2.8187640897847531E-011
  -3.2450000000000007E-002     1.1722755242721197E-011
  -3.1600000000000003E-002    -9.9619687562373307E-012
  -3.0750000000000000E-002    -3.5413367516064066E-011
  -2.9899999999999996E-002    -6.2271086181286223E-011
  -2.9050000000000006E-002    -8.7398820401335051E-011
  -2.8200000000000003E-002    -1.0717929609954947E-010
  -2.7349999999999999E-002    -1.1795084459279236E-010
  -2.6499999999999996E-002    -1.1653365362891666E-010
  -2.5650000000000006E-002    -1.0077089969491350E-010
  -2.4800000000000003E-002    -6.9999783863121456E-011
  -2.3949999999999999E-002    -2.5371895320234360E-011
  -2.3099999999999996E-002     3.0039020791124388E-011
  -2.2250000000000006E-002     9.1375090933043415E-011
  -2.1400000000000002E-002     1.5237631745918730E-010
  -2.0549999999999999E-002     2.0597204444202265E-010
  -1.9699999999999995E-002     2.4501907186024756E-010
  -1.8850000000000006E-002     2.6310676389530582E-010
  -1.8000000000000002E-002     2.5534227460542324E-010
  -1.7149999999999999E-002     2.1903286283841370E-010
  -1.6299999999999995E-002     1.5419418299685150E-010
  -1.5450000000000005E-002     6.3829120943596484E-011
  -1.4600000000000002E-002    -4.6059402466381766E-011
  -1.3749999999999998E-002    -1.6673937344796602E-010
  -1.2899999999999995E-002    -2.8730362122685787E-010
  -1.2050000000000005E-002    -3.9548726421514866E-010
  -1.1200000000000002E-002    -4.7870880436885483E-010
  -1.0349999999999998E-002    -5.2527233688235655E-010
  -9.5000000000000084E-003    -5.2564472312890051E-010
  -8.6500000000000049E-003    -4.7369774769849768E-010
  -7.8000000000000014E-003    -3.6778511304099946E-010
  -6.9499999999999978E-003    -2.1151450637473216E-010
  -6.1000000000000082E-003    -1.4079470192771168E-011
  -5.2500000000000047E-003     2.0996039668965924E-010
  -4.4000000000000011E-003     4.4151523137758658E-010
  -3.5499999999999976E-003     6.5841585012923902E-010
  -2.7000000000000079E-003     8.3739774328813102E-010
  -1.8500000000000044E-003     9.5645223869045976E-010
  -1.0000000000000009E-003     9.9730618880034092E-010
  -1.4999999999999736E-004     9.4774286489960894E-010
   6.9999999999999230E-004     8.0346484729208564E-010
   1.5499999999999958E-003     5.6923322309248935E-010
   2.3999999999999994E-003     2.5909291203197612E-010
   3.2500000000000029E-003    -1.0439634494563588E-010
   4.0999999999999925E-003    -4.9187715627164006E-010
   4.9499999999999961E-003    -8.6969238039571263E-010
   5.7999999999999996E-003    -1.2028984624854885E-009
   6.6499999999999893E-003    -1.4584766230632322E-009
   7.5000000000000067E-003    -1.6084134215070232E-009
   8.3499999999999963E-003    -1.6323650663299456E-009
   9.1999999999999860E-003    -1.5196856942510414E-009
   1.0050000000000003E-002    -1.2706839968881261E-009
   1.0899999999999993E-002    -8.9704654220924847E-010
   1.1750000000000010E-002    -4.2142600599226218E-010
   1.2600000000000000E-002     1.2377891111974748E-010
   1.3449999999999990E-002     6.9840392618071078E-010
   1.4300000000000007E-002     1.2571993587834899E-009
   1.5149999999999997E-002     1.7531196397234891E-009
   1.5999999999999986E-002     2.1410751535849746E-009
   1.6850000000000004E-002     2.3819187366407084E-009
   1.7699999999999994E-002     2.4463460059134256E-009
   1.8549999999999983E-002     2.3183046404216579E-009
   1.9400000000000001E-002     1.9974704465430330E-009
   2.0249999999999990E-002     1.5003808747265444E-009
   2.1100000000000008E-002     8.5992364069179560E-010
   2.1949999999999997E-002     1.2307678256523122E-010
   2.2799999999999987E-002    -6.5297298712946661E-010
   2.3650000000000004E-002    -1.4059576931860419E-009
   2.4499999999999994E-002    -2.0743286858881918E-009
   2.5349999999999984E-002    -2.6030447050882522E-009
   2.6200000000000001E-002    -2.9486627968752575E-009
   2.7049999999999991E-002    -3.0831585504136733E-009
   2.7900000000000008E-002    -2.9961025950473624E-009
   2.8749999999999998E-002    -2.6950596367192723E-009
   2.9599999999999987E-002    -2.2043154361804717E-009
   3.0450000000000005E-002    -1.5622106718927444E-009
   3.1299999999999994E-002    -8.1748465705459475E-010
   3.2149999999999984E-002    -2.5042224741044243E-011
   3.3000000000000002E-002     7.5846324812360094E-010
   3.3849999999999991E-002     1.4789115483130064E-009
   3.4700000000000009E-002     2.0886062957705667E-009
   3.5549999999999998E-002     2.5495695552771681E-009
   3.6399999999999988E-002     2.8360560094002999E-009
   3.7250000000000005E-002     2.9361170394099684E-009
   3.8099999999999995E-002     2.8520637951694883E-009
   3.8949999999999985E-002     2.5997328156886985E-009
   3.9800000000000002E-002     2.2065522209419755E-009
   4.0649999999999992E-002     1.7085482975188173E-009
   4.1500000000000009E-002     1.1465746346247079E-009
   4.2349999999999999E-002     5.6218812894942204E-010
   4.3199999999999988E-002    -6.3353126002245952E-012
   4.4050000000000006E-002    -5.2735070165985273E-010
   4.4899999999999995E-002    -9.7816419756421651E-010
   4.5749999999999985E-002    -1.3460888226232292E-009
   4.6600000000000003E-002    -1.6282064550388756E-009
   4.7449999999999992E-002    -1.8299993380711418E-009
   4.8299999999999982E-002    -1.9631619347870954E-009
   4.9149999999999999E-002    -2.0429769769046261E-009
   4.9999999999999989E-002    -2.0856340288078172E-009
   5.0850000000000006E-002    -2.1058001843390287E-009
   5.1699999999999996E-002    -2.1146583909673305E-009
   5.2549999999999986E-002    -2.1185216533655344E-009
   5.3400000000000003E-002    -2.1180758811205758E-009
   5.4249999999999993E-002    -2.1082521902916061E-009
   5.5099999999999982E-002    -2.0787329438522572E-009
   5.5950000000000000E-002    -2.0150904940836234E-009
   5.6799999999999989E-002    -1.9005316805978616E-009
   5.7650000000000007E-002    -1.7181769650672357E-009
   5.8499999999999996E-002    -1.4537102355535758E-009
   5.9349999999999986E-002    -1.0981331860877423E-009
   6.0200000000000004E-002    -6.5027362266980739E-010
   6.1049999999999993E-002    -1.1865792980731341E-010
   6.1899999999999983E-002     4.7760393114167604E-010
   6.2750000000000000E-002     1.1091525575647686E-009
   6.3599999999999990E-002     1.7379797368433709E-009
   6.4450000000000007E-002     2.3201268117465174E-009
   6.5299999999999997E-002     2.8091197069486338E-009
   6.6149999999999987E-002     3.1596480626615558E-009
   6.7000000000000004E-002     3.3309626944049808E-009
   6.7849999999999994E-002     3.2895274537490360E-009
   6.8699999999999983E-002     3.0106138535929216E-009
   6.9550000000000001E-002     2.4787062474099859E-009
   7.0399999999999990E-002     1.6867686264161321E-009
   7.1249999999999980E-002     6.3455462496154755E-010
   7.2099999999999997E-002    -6.7380861505103798E-010
   7.2949999999999987E-002    -2.2327627346342248E-009
   7.3800000000000004E-002    -4.0386232841242638E-009
   7.4649999999999994E-002    -6.0931852509966582E-009
   7.5499999999999984E-002    -8.4075946754412158E-009
   7.6350000000000001E-002    -1.1006457387535453E-008
   7.7199999999999991E-002    -1.3932094062753002E-008
   7.8049999999999981E-002    -1.7248759018525802E-008
   7.8899999999999998E-002    -2.1046595161522774E-008
   7.9749999999999988E-002    -2.5445031281608425E-008
   8.0600000000000005E-002    -3.0595438846961199E-008
   8.1449999999999995E-002    -3.6682984333796156E-008
   8.2299999999999984E-002    -4.3927884325972633E-008
   8.3150000000000002E-002    -5.2586425570966717E-008
   8.3999999999999991E-002    -6.2952375529411001E-008
   8.4849999999999981E-002    -7.5359414287127003E-008
   8.5699999999999998E-002    -9.0185233841057561E-008
   8.6549999999999988E-002    -1.0785776518320380E-007
   8.7400000000000005E-002    -1.2886361682134082E-007
   8.8249999999999995E-002    -1.5375879339917945E-007
   8.9099999999999985E-002    -1.8318116574977649E-007
   8.9950000000000002E-002    -2.1786428297679923E-007
   9.0799999999999992E-002    -2.5865222511964730E-007
   9.1649999999999981E-002    -3.0651506867247362E-007
   9.2499999999999999E-002    -3.6256464584494692E-007
   9.3349999999999989E-002    -4.2807142182246631E-007
   9.4200000000000006E-002    -5.0448161683549097E-007
   9.5049999999999996E-002    -5.9343573545005998E-007
   9.5899999999999985E-002    -6.9678838937201514E-007
   9.6750000000000003E-002    -8.1662909880767581E-007
   9.7599999999999992E-002    -9.5530417094738356E-007
   9.8449999999999982E-002    -1.1154399449334699E-006
   9.9299999999999999E-002    -1.2999649524769877E-006
  0.10014999999999999         -1.5121341578346379E-006
  0.10099999999999998         -1.7555531106203116E-006
  0.10185000000000000         -2.0342019162813548E-006
  0.10269999999999999         -2.3524614446138865E-006
  0.10355000000000000         -2.7151414835445345E-006
  0.10439999999999999         -3.1275095513532489E-006
  0.10524999999999998         -3.5953216767834970E-006
  0.10610000000000000         -4.1248539492052452E-006
  0.10694999999999999         -4.7229354031511411E-006
  0.10779999999999998         -5.3969778976271406E-006
  0.10865000000000000         -6.1550035522286266E-006
  0.10949999999999999         -7.0056695176533639E-006
  0.11035000000000000         -7.9582876752037360E-006
  0.11119999999999999         -9.0228375959679456E-006
  0.11204999999999998         -1.0209979781782492E-005
  0.11290000000000000         -1.1531056558906779E-005
  0.11374999999999999         -1.2998091914301362E-005
  0.11459999999999998         -1.4623782791854080E-005
  0.11545000000000000         -1.6421483641323927E-005
  0.11629999999999999         -1.8405174915433789E-005
  0.11715000000000000         -2.0589439717300679E-005
  0.11799999999999999         -2.2989402679676780E-005
  0.11884999999999998         -2.5620673567880642E-005
  0.11970000000000000         -2.8499272155961178E-005
  0.12054999999999999         -3.1641526091485070E-005
  0.12139999999999998         -3.5063972714138992E-005
  0.12225000000000000         -3.8783231092962303E-005
  0.12309999999999999         -4.2815864973787483E-005
  0.12395000000000000         -4.7178214364584427E-005
  0.12479999999999999         -5.1886223217554328E-005
  0.12564999999999998         -5.6955209603062940E-005
  0.12650000000000000         -6.2399686281019206E-005
  0.12734999999999999         -6.8233066250853364E-005
  0.12819999999999998         -7.4467431580499003E-005
  0.12905000000000000         -8.1113176390779920E-005
  0.12989999999999999         -8.8178746486752981E-005
  0.13074999999999998         -9.5670262435755321E-005
  0.13159999999999999         -1.0359114735400868E-004
  0.13245000000000001         -1.1194180361679280E-004
  0.13329999999999997         -1.2071915840679043E-004
  0.13414999999999999         -1.2991629013274500E-004
  0.13500000000000001         -1.3952201239981194E-004
  0.13584999999999997         -1.4952050980760059E-004
  0.13669999999999999         -1.5989081567058654E-004
  0.13755000000000001         -1.7060652688037504E-004
  0.13839999999999997         -1.8163534535081750E-004
  0.13924999999999998         -1.9293869826388622E-004
  0.14010000000000000         -2.0447152719295088E-004
  0.14094999999999996         -2.1618182017190996E-004
  0.14179999999999998         -2.2801052023242130E-004
  0.14265000000000000         -2.3989123317533369E-004
  0.14350000000000002         -2.5175020616453262E-004
  0.14434999999999998         -2.6350606146605555E-004
  0.14520000000000000         -2.7507003703146419E-004
  0.14605000000000001         -2.8634599065298155E-004
  0.14689999999999998         -2.9723040817399287E-004
  0.14774999999999999         -3.0761304097800580E-004
  0.14860000000000001         -3.1737717233198915E-004
  0.14944999999999997         -3.2639993558070281E-004
  0.15029999999999999         -3.3455327612704795E-004
  0.15115000000000001         -3.4170454847980586E-004
  0.15199999999999997         -3.4771736859229275E-004
  0.15284999999999999         -3.5245279176555303E-004
  0.15370000000000000         -3.5577035928919956E-004
  0.15454999999999997         -3.5752946193038385E-004
  0.15539999999999998         -3.5759040524234339E-004
  0.15625000000000000         -3.5581618037564965E-004
  0.15709999999999996         -3.5207389144910052E-004
  0.15794999999999998         -3.4623626777013005E-004
  0.15880000000000000         -3.3818362729776162E-004
  0.15965000000000001         -3.2780548627173167E-004
  0.16049999999999998         -3.1500213542736831E-004
  0.16134999999999999         -2.9968679368620391E-004
  0.16220000000000001         -2.8178705706228754E-004
  0.16304999999999997         -2.6124683206169404E-004
  0.16389999999999999         -2.3802777344976658E-004
  0.16475000000000001         -2.1211122363791631E-004
  0.16559999999999997         -1.8349906388649028E-004
  0.16644999999999999         -1.5221536686946661E-004
  0.16730000000000000         -1.1830742594127892E-004
  0.16814999999999997         -8.1846799710180972E-005
  0.16899999999999998         -4.2929907231082856E-005
  0.16985000000000000         -1.6785296695633583E-006
  0.17069999999999996          4.1759904906331770E-005
  0.17154999999999998          8.7212350933553001E-005
  0.17240000000000000          1.3448104941102702E-004
  0.17325000000000002          1.8334317534403655E-004
  0.17409999999999998          2.3355263735664000E-004
  0.17494999999999999          2.8484094815196966E-004
  0.17580000000000001          3.3691893694229791E-004
  0.17664999999999997          3.8947850949792216E-004
  0.17749999999999999          4.4219472367339668E-004
  0.17835000000000001          4.9472853120761506E-004
  0.17919999999999997          5.4672907941117461E-004
  0.18004999999999999          5.9783669934860369E-004
  0.18090000000000001          6.4768617873106247E-004
  0.18174999999999997          6.9590966293310314E-004
  0.18259999999999998          7.4214037351845420E-004
  0.18345000000000000          7.8601602956834479E-004
  0.18429999999999996          8.2718238070883391E-004
  0.18514999999999998          8.6529664844930531E-004
  0.18600000000000000          9.0003111276366747E-004
  0.18684999999999996          9.3107686807654443E-004
  0.18769999999999998          9.5814672036578211E-004
  0.18855000000000000          9.8097847120111759E-004
  0.18940000000000001          9.9933803248494313E-004
  0.19024999999999997          1.0130221420487761E-003
  0.19109999999999999          1.0218605317702740E-003
  0.19195000000000001          1.0257181700141459E-003
  0.19279999999999997          1.0244975644000428E-003
  0.19364999999999999          1.0181393893991194E-003
  0.19450000000000001          1.0066240422527508E-003
  0.19534999999999997          9.8997194165599046E-004
  0.19619999999999999          9.6824408851827035E-004
  0.19705000000000000          9.4154165701057719E-004
  0.19789999999999996          9.1000507271620748E-004
  0.19874999999999998          8.7381336657494670E-004
  0.19960000000000000          8.3318240054837845E-004
  0.20044999999999996          7.8836282569584928E-004
  0.20129999999999998          7.3963831373907371E-004
  0.20215000000000000          6.8732230748657329E-004
  0.20300000000000001          6.3175600995434608E-004
  0.20384999999999998          5.7330422023954195E-004
  0.20469999999999999          5.1235258033817421E-004
  0.20555000000000001          4.4930383620715090E-004
  0.20639999999999997          3.8457359852821053E-004
  0.20724999999999999          3.1858721959160809E-004
  0.20810000000000001          2.5177526691935823E-004
  0.20894999999999997          1.8456971023606279E-004
  0.20979999999999999          1.1740009025524488E-004
  0.21065000000000000          5.0689715871327971E-005
  0.21149999999999997         -1.5148289466022449E-005
  0.21234999999999998         -7.9714348835659512E-005
  0.21320000000000000         -1.4262586672825686E-004
  0.21404999999999996         -2.0352013925912249E-004
  0.21489999999999998         -2.6205732200387664E-004
  0.21575000000000000         -3.1792317393685099E-004
  0.21659999999999996         -3.7083120611247980E-004
  0.21744999999999998         -4.2052432882157948E-004
  0.21829999999999999         -4.6677661246674813E-004
  0.21915000000000001         -5.0939484527521542E-004
  0.21999999999999997         -5.4821864642829907E-004
  0.22084999999999999         -5.8312122453697270E-004
  0.22170000000000001         -6.1400996858104035E-004
  0.22254999999999997         -6.4082553322111931E-004
  0.22339999999999999         -6.6354143746963812E-004
  0.22425000000000000         -6.8216328860872151E-004
  0.22509999999999997         -6.9672735340249451E-004
  0.22594999999999998         -7.0729946718731021E-004
  0.22680000000000000         -7.1397296426596081E-004
  0.22764999999999996         -7.1686713732042559E-004
  0.22849999999999998         -7.1612490420556714E-004
  0.22935000000000000         -7.1191067420085558E-004
  0.23019999999999996         -7.0440745858096508E-004
  0.23104999999999998         -6.9381513390480150E-004
  0.23190000000000000         -6.8034770406397952E-004
  0.23275000000000001         -6.6423081077529957E-004
  0.23359999999999997         -6.4569872003366290E-004
  0.23444999999999999         -6.2499213937824180E-004
  0.23530000000000001         -6.0235588994749347E-004
  0.23614999999999997         -5.7803630012051425E-004
  0.23699999999999999         -5.5227892667304419E-004
  0.23785000000000001         -5.2532658657992570E-004
  0.23869999999999997         -4.9741741434054657E-004
  0.23954999999999999         -4.6878289713520808E-004
  0.24040000000000000         -4.3964615513395519E-004
  0.24124999999999996         -4.1022059812832826E-004
  0.24209999999999998         -3.8070863855490226E-004
  0.24295000000000000         -3.5130054803088567E-004
  0.24379999999999996         -3.2217354744335864E-004
  0.24464999999999998         -2.9349089857440210E-004
  0.24550000000000000         -2.6540153513215724E-004
  0.24634999999999996         -2.3803964383745620E-004
  0.24719999999999998         -2.1152445593638174E-004
  0.24804999999999999         -1.8596033265032681E-004
  0.24890000000000001         -1.6143677230051853E-004
  0.24974999999999997         -1.3802879956196406E-004
  0.25059999999999999         -1.1579729625900054E-004
  0.25145000000000001         -9.4789666436667316E-005
  0.25229999999999997         -7.5040245432905119E-005
  0.25314999999999999         -5.6571116670441636E-005
  0.25400000000000000         -3.9392751712949854E-005
  0.25484999999999997         -2.3504997135401745E-005
  0.25569999999999998         -8.8976823912652676E-006
  0.25655000000000000          4.4482080467127060E-006
  0.25739999999999996          1.6559759814617242E-005
  0.25824999999999998          2.7471212272532283E-005
  0.25910000000000000          3.7222983102069740E-005
  0.25994999999999996          4.5860722149353416E-005
  0.26079999999999998          5.3434429862031106E-005
  0.26164999999999999          5.9997814040803049E-005
  0.26249999999999996          6.5607085243361249E-005
  0.26334999999999997          7.0320680448688854E-005
  0.26419999999999999          7.4198146718492888E-005
  0.26505000000000001          7.7299813700622039E-005
  0.26589999999999997          7.9685855014834467E-005
  0.26674999999999999          8.1416062658105898E-005
  0.26760000000000000          8.2549116431397007E-005
  0.26844999999999997          8.3142245931141565E-005
  0.26929999999999998          8.3250714594529062E-005
  0.27015000000000000          8.2927654455274425E-005
  0.27099999999999996          8.2223727021453187E-005
  0.27184999999999998          8.1186865709834851E-005
  0.27270000000000000          7.9862340514571877E-005
  0.27354999999999996          7.8292388032064720E-005
  0.27439999999999998          7.6516354770952833E-005
  0.27524999999999999          7.4570605714452607E-005
  0.27609999999999996          7.2488563423833821E-005
  0.27694999999999997          7.0300738935876912E-005
  0.27779999999999999          6.8034766631350693E-005
  0.27865000000000001          6.5715398617820613E-005
  0.27949999999999997          6.3364724462441655E-005
  0.28034999999999999          6.1002239675640645E-005
  0.28120000000000001          5.8644973242798997E-005
  0.28204999999999997          5.6307602866755156E-005
  0.28289999999999998          5.4002715865619789E-005
  0.28375000000000000          5.1740937309064595E-005
  0.28459999999999996          4.9531084715405911E-005
  0.28544999999999998          4.7380298909256393E-005
  0.28630000000000000          4.5294340131664008E-005
  0.28714999999999996          4.3277551478093022E-005
  0.28799999999999998          4.1333122377605844E-005
  0.28885000000000000          3.9463124141464874E-005
  0.28969999999999996          3.7668753276255004E-005
  0.29054999999999997          3.5950314433301587E-005
  0.29139999999999999          3.4307481354916466E-005
  0.29224999999999995          3.2739308242567321E-005
  0.29309999999999997          3.1244389015746409E-005
  0.29394999999999999          2.9820994970238546E-005
  0.29480000000000001          2.8467091825929852E-005
  0.29564999999999997          2.7180476402855876E-005
  0.29649999999999999          2.5958786909632932E-005
  0.29735000000000000          2.4799543956875980E-005
  0.29819999999999997          2.3700190207265303E-005
  0.29904999999999998          2.2658140470530951E-005
  0.29990000000000000          2.1670768623565620E-005
  0.30074999999999996          2.0735416975534142E-005
  0.30159999999999998          1.9849489769431428E-005
  0.30245000000000000          1.9010440574038599E-005
  0.30329999999999996          1.8215818385301537E-005
  0.30414999999999998          1.7463243416777273E-005
  0.30499999999999999          1.6750493102663913E-005
  0.30584999999999996          1.6075433106416438E-005
  0.30669999999999997          1.5436062451115134E-005
  0.30754999999999999          1.4830457799033473E-005
  0.30840000000000001          1.4256804631183443E-005
  0.30924999999999997          1.3713358942070686E-005
  0.31009999999999999          1.3198469138137410E-005
  0.31095000000000000          1.2710570783970539E-005
  0.31179999999999997          1.2248138183918301E-005
  0.31264999999999998          1.1809757554242657E-005
  0.31350000000000000          1.1394077164765325E-005
  0.31434999999999996          1.0999817129955135E-005
  0.31519999999999998          1.0625742422187185E-005
  0.31605000000000000          1.0270675980358303E-005
  0.31689999999999996          9.9334812136848746E-006
  0.31774999999999998          9.6130739929805838E-006
  0.31859999999999999          9.3083980117579642E-006
  0.31944999999999996          9.0184407760910997E-006
  0.32029999999999997          8.7422384511828869E-006
  0.32114999999999999          8.4788607056273206E-006
  0.32199999999999995          8.2274172144433906E-006
  0.32284999999999997          7.9870485178340459E-006
  0.32369999999999999          7.7569376641121417E-006
  0.32455000000000001          7.5362838142053548E-006
  0.32539999999999997          7.3243144659043675E-006
  0.32624999999999998          7.1203097918970781E-006
  0.32710000000000000          6.9235722282386631E-006
  0.32794999999999996          6.7334803349872771E-006
  0.32879999999999998          6.5494423313420606E-006
  0.32965000000000000          6.3709304490415555E-006
  0.33049999999999996          6.1974584550190533E-006
  0.33134999999999998          6.0285728433683188E-006
  0.33220000000000000          5.8638605251033310E-006
  0.33304999999999996          5.7029086859744328E-006
  0.33389999999999997          5.5453400602701003E-006
  0.33474999999999999          5.3908176047197282E-006
  0.33559999999999995          5.2390214975423904E-006
  0.33644999999999997          5.0896999261935416E-006
  0.33729999999999999          4.9426813730491705E-006
  0.33815000000000001          4.7978693731859746E-006
  0.33899999999999997          4.6552618621122794E-006
  0.33984999999999999          4.5149338563463253E-006
  0.34070000000000000          4.3770293984575391E-006
  0.34154999999999996          4.2417403523953698E-006
  0.34239999999999998          4.1092738112598788E-006
  0.34325000000000000          3.9798518372020397E-006