 -0.12000000000000000          0.0000000000000000
 -0.11914999999999999          0.0000000000000000
 -0.11830000000000000          0.0000000000000000
 -0.11745000000000000          0.0000000000000000
 -0.11660000000000000          0.0000000000000000
 -0.11574999999999999          0.0000000000000000
 -0.11490000000000000          0.0000000000000000
 -0.11405000000000000          0.0000000000000000
 -0.11320000000000000          0.0000000000000000
 -0.11234999999999999          0.0000000000000000
 -0.11150000000000000          0.0000000000000000
 -0.11065000000000000          0.0000000000000000
 -0.10979999999999999          7.0655521135021373E-036
 -0.10894999999999999          1.2268666090045205E-034
 -0.10810000000000000          9.5633187605965079E-034
 -0.10725000000000000          4.0349503398720101E-033
 -0.10639999999999999          6.0541958460162840E-033
 -0.10554999999999999         -3.6317924705865063E-032
 -0.10470000000000000         -3.0652400412582387E-031
 -0.10385000000000000         -1.2274986530021503E-030
 -0.10299999999999999         -3.0492549620106265E-030
 -0.10214999999999999         -3.5544853406664405E-030
 -0.10130000000000000          7.7200380651066745E-030
 -0.10045000000000000          5.6539695613237304E-029
  -9.9599999999999994E-002     1.7719404689714785E-028
  -9.8750000000000004E-002     3.5514930758727588E-028
  -9.7900000000000001E-002     3.7361996387434939E-028
  -9.7049999999999997E-002    -4.1971273744576680E-028
  -9.6199999999999994E-002    -3.2004022550695035E-027
  -9.5349999999999990E-002    -9.0232642785544691E-027
  -9.4500000000000001E-002    -1.6594119918818916E-026
  -9.3649999999999997E-002    -1.8080879479769186E-026
  -9.2799999999999994E-002     5.2878928633545159E-027
  -9.1950000000000004E-002     8.1942263382540608E-026
  -9.1100000000000000E-002     2.3259238492352722E-025
  -9.0249999999999997E-002     4.2655131969121413E-025
  -8.9399999999999993E-002     5.1464483630391650E-025
  -8.8549999999999990E-002     1.7407475212823516E-025
  -8.7700000000000000E-002    -1.0523154445864678E-024
  -8.6849999999999997E-002    -3.5057384676173599E-024
  -8.5999999999999993E-002    -6.8660060405587090E-024
  -8.5150000000000003E-002    -9.3885879680509663E-024
  -8.4300000000000000E-002    -7.3167454000023285E-024
  -8.3449999999999996E-002     4.7548594209063469E-024
  -8.2600000000000007E-002     3.1582116992189157E-023
  -8.1749999999999989E-002     7.2412260853671941E-023
  -8.0900000000000000E-002     1.1422110119779770E-022
  -8.0049999999999996E-002     1.2595627624859302E-022
  -7.9199999999999993E-002     5.9269464274312724E-023
  -7.8350000000000003E-002    -1.3741258135539183E-022
  -7.7499999999999999E-002    -4.8663746176117112E-022
  -7.6649999999999996E-002    -9.3395858433908291E-022
  -7.5800000000000006E-002    -1.2994854698756108E-021
  -7.4949999999999989E-002    -1.2592997603214516E-021
  -7.4099999999999999E-002    -3.9724463349510688E-022
  -7.3249999999999996E-002     1.6375537897107374E-021
  -7.2399999999999992E-002     4.8623699783207445E-021
  -7.1550000000000002E-002     8.6354271259318099E-021
  -7.0699999999999999E-002     1.1404199819202286E-020
  -6.9849999999999995E-002     1.0726593796925236E-020
  -6.9000000000000006E-002     3.7802737438315638E-021
  -6.8149999999999988E-002    -1.1507806029963361E-020
  -6.7299999999999999E-002    -3.4792695645434170E-020
  -6.6449999999999995E-002    -6.1514092726399338E-020
  -6.5599999999999992E-002    -8.1746866937433109E-020
  -6.4750000000000002E-002    -8.0726597249952368E-020
  -6.3899999999999998E-002    -4.2014972126343744E-020
  -6.3049999999999995E-002     4.6283906347689624E-020
  -6.2199999999999998E-002     1.8295414908221510E-019
  -6.1350000000000002E-002     3.4495445773678770E-019
  -6.0499999999999998E-002     4.8225451624141825E-019
  -5.9650000000000002E-002     5.2070041335656256E-019
  -5.8799999999999998E-002     3.7671879101098073E-019
  -5.7950000000000002E-002    -1.5001357486357073E-020
  -5.7099999999999998E-002    -6.6436535131441979E-019
  -5.6249999999999994E-002    -1.4885594670024019E-018
  -5.5400000000000005E-002    -2.2889747399887268E-018
  -5.4550000000000001E-002    -2.7588339995765310E-018
  -5.3699999999999998E-002    -2.5347133591034712E-018
  -5.2849999999999994E-002    -1.2953226276916775E-018
  -5.2000000000000005E-002     1.1046599734462342E-018
  -5.1150000000000001E-002     4.4958624576212581E-018
  -5.0299999999999997E-002     8.2955465358022472E-018
  -4.9449999999999994E-002     1.1499127036838681E-017
  -4.8600000000000004E-002     1.2802349160002116E-017
  -4.7750000000000001E-002     1.0868245941290267E-017
  -4.6899999999999997E-002     4.7133933867900530E-018
  -4.6049999999999994E-002    -5.8562804518925669E-018
  -4.5200000000000004E-002    -1.9866593765145673E-017
  -4.4350000000000001E-002    -3.4976177259737923E-017
  -4.3499999999999997E-002    -4.7568369537966059E-017
  -4.2649999999999993E-002    -5.3201648208597685E-017
  -4.1800000000000004E-002    -4.7418138494979467E-017
  -4.0950000000000000E-002    -2.6829056920624849E-017
  -4.0099999999999997E-002     9.6822338985247368E-018
  -3.9249999999999993E-002     5.9860728790138468E-017
  -3.8400000000000004E-002     1.1734070157865486E-016
  -3.7550000000000000E-002     1.7152814618861529E-016
  -3.6699999999999997E-002     2.0833435984700995E-016
  -3.5850000000000007E-002     2.1191798988528655E-016
  -3.5000000000000003E-002     1.6746990047896568E-016
  -3.4150000000000000E-002     6.4890799076607234E-017
  -3.3299999999999996E-002    -9.7037641009999128E-017
  -3.2450000000000007E-002    -3.0667818496665437E-016
  -3.1600000000000003E-002    -5.3673457096440239E-016
  -3.0750000000000000E-002    -7.4378410114346796E-016
  -2.9899999999999996E-002    -8.7129831391036121E-016
  -2.9050000000000006E-002    -8.5698020996585656E-016
  -2.8200000000000003E-002    -6.4455033220338034E-016
  -2.7349999999999999E-002    -1.9906663971185885E-016
  -2.6499999999999996E-002     4.7639170839131739E-016
  -2.5650000000000006E-002     1.3260630969820033E-015
  -2.4800000000000003E-002     2.2330922057049839E-015
  -2.3949999999999999E-002     3.0217160792353438E-015
  -2.3099999999999996E-002     3.4735222271156118E-015
  -2.2250000000000006E-002     3.3592575678087279E-015
  -2.1400000000000002E-002     2.4846732951565585E-015
  -2.0549999999999999E-002     7.4527457976028602E-016
  -1.9699999999999995E-002    -1.8187960733332771E-015
  -1.8850000000000006E-002    -4.9794065446615227E-015
  -1.8000000000000002E-002    -8.3016012438944742E-015
  -1.7149999999999999E-002    -1.1161327173098881E-014
  -1.6299999999999995E-002    -1.2808058622132604E-014
  -1.5450000000000005E-002    -1.2474192262025620E-014
  -1.4600000000000002E-002    -9.5242753176115440E-015
  -1.3749999999999998E-002    -3.6269783040563677E-015
  -1.2899999999999995E-002     5.0771842703713746E-015
  -1.2050000000000005E-002     1.5846948872029381E-014
  -1.1200000000000002E-002     2.7287864911208526E-014
  -1.0349999999999998E-002     3.7410716551492487E-014
  -9.5000000000000084E-003     4.3824269176221559E-014
  -8.6500000000000049E-003     4.4066841893366367E-014
  -7.8000000000000014E-003     3.6055705661897854E-014
  -6.9499999999999978E-003     1.8604148551290226E-014
  -6.1000000000000082E-003    -8.0720356933981210E-015
  -5.2500000000000047E-003    -4.1958394862260680E-014
  -4.4000000000000011E-003    -7.9064718091959462E-014
  -3.5499999999999976E-003    -1.1356594994872500E-013
  -2.7000000000000079E-003    -1.3832858721246416E-013
  -1.8500000000000044E-003    -1.4583683704055926E-013
  -1.0000000000000009E-003    -1.2946137504749710E-013
  -1.4999999999999736E-004    -8.4932224165217174E-014
   6.9999999999999230E-004    -1.1799421688764952E-014
   1.5499999999999958E-003     8.5393095796293370E-014
   2.3999999999999994E-003     1.9651577176279893E-013
   3.2500000000000029E-003     3.0611089135210938E-013
   4.0999999999999925E-003     3.9467826554569704E-013
   4.9499999999999961E-003     4.4102290372203188E-013
   5.7999999999999996E-003     4.2551169327707967E-013
   6.6499999999999893E-003     3.3388191811321798E-013
   7.5000000000000067E-003     1.6106102282507616E-013
   8.3499999999999963E-003    -8.5667000892674066E-014
   9.1999999999999860E-003    -3.8484362398087075E-013
   1.0050000000000003E-002    -7.0097476877181893E-013
   1.0899999999999993E-002    -9.8702508627604116E-013
   1.1750000000000010E-002    -1.1893515421932389E-012
   1.2600000000000000E-002    -1.2547781263106359E-012
   1.3449999999999990E-002    -1.1391214771263273E-012
   1.4300000000000007E-002    -8.1612981143537339E-013
   1.5149999999999997E-002    -2.8555036553955694E-013
   1.5999999999999986E-002     4.2105285891314710E-013
   1.6850000000000004E-002     1.2380326664161330E-012
   1.7699999999999994E-002     2.0679755120237149E-012
   1.8549999999999983E-002     2.7891896516357302E-012
   1.9400000000000001E-002     3.2683550496580739E-012
   2.0249999999999990E-002     3.3775999824953619E-012
   2.1100000000000008E-002     3.0144909727456575E-012
   2.1949999999999997E-002     2.1226763062818558E-012
   2.2799999999999987E-002     7.1033057117092298E-013
   2.3650000000000004E-002    -1.1367916651898373E-012
   2.4499999999999994E-002    -3.2508074258709122E-012
   2.5349999999999984E-002    -5.3881899334717009E-012
   2.6200000000000001E-002    -7.2486779692057979E-012
   2.7049999999999991E-002    -8.5064009149161117E-012
   2.7900000000000008E-002    -8.8510977534228500E-012
   2.8749999999999998E-002    -8.0353641803926818E-012
   2.9599999999999987E-002    -5.9222011762312452E-012
   3.0450000000000005E-002    -2.5261116261142896E-012
   3.1299999999999994E-002     1.9591617329989663E-012
   3.2149999999999984E-002     7.1523388298859502E-012
   3.3000000000000002E-002     1.2500072944152677E-011
   3.3849999999999991E-002     1.7317998601906060E-011
   3.4700000000000009E-002     2.0856167804315625E-011
   3.5549999999999998E-002     2.2384554645477017E-011
   3.6399999999999988E-002     2.1291279320626883E-011
   3.7250000000000005E-002     1.7183689071048377E-011
   3.8099999999999995E-002     9.9804800919125129E-012
   3.8949999999999985E-002    -1.8051673476277641E-014
   3.9800000000000002E-002    -1.2094376554425657E-011
   4.0649999999999992E-002    -2.5123903413603632E-011
   4.1500000000000009E-002    -3.7638751177684575E-011
   4.2349999999999999E-002    -4.7947616542571151E-011
   4.3199999999999988E-002    -5.4307357373716191E-011
   4.4050000000000006E-002    -5.5134063875839338E-011
   4.4899999999999995E-002    -4.9233394694388005E-011
   4.5749999999999985E-002    -3.6023547425636338E-011
   4.6600000000000003E-002    -1.5720538771337283E-011
   4.7449999999999992E-002     1.0544314513047468E-011
   4.8299999999999982E-002     4.0700369747702649E-011
   4.9149999999999999E-002     7.1824155911696026E-011
   4.9999999999999989E-002     1.0034199807551306E-010
   5.0850000000000006E-002     1.2234178957454521E-010
   5.1699999999999996E-002     1.3397408749270743E-010
   5.2549999999999986E-002     1.3191147409994063E-010
   5.3400000000000003E-002     1.1382519067797001E-010
   5.4249999999999993E-002     7.8831118872558927E-011
   5.5099999999999982E-002     2.7852589747938230E-011
   5.5950000000000000E-002    -3.6154253840832755E-011
   5.6799999999999989E-002    -1.0816464783490672E-010
   5.7650000000000007E-002    -1.8128267172607331E-010
   5.8499999999999996E-002    -2.4719811933628510E-010
   5.9349999999999986E-002    -2.9690225847466956E-010
   6.0200000000000004E-002    -3.2162765093521002E-010
   6.1049999999999993E-002    -3.1393840636299180E-010
   6.1899999999999983E-002    -2.6885869378262699E-010
   6.2750000000000000E-002    -1.8489807364927427E-010
   6.3599999999999990E-002    -6.4821347751604607E-011
   6.4450000000000007E-002     8.3977876535233063E-011
   6.5299999999999997E-002     2.4960480566938107E-010
   6.6149999999999987E-002     4.1634177523201375E-010
   6.7000000000000004E-002     5.6586055176609215E-010
   6.7849999999999994E-002     6.7888419723646002E-010
   6.8699999999999983E-002     7.3715716336016102E-010
   6.9550000000000001E-002     7.2554304129321991E-010
   7.0399999999999990E-002     6.3405072049240035E-010
   7.1249999999999980E-002     4.5959061060690122E-010
   7.2099999999999997E-002     2.0727380872461505E-010
   7.2949999999999987E-002    -1.0891365585268514E-010
   7.3800000000000004E-002    -4.6620053331443236E-010
   7.4649999999999994E-002    -8.3398870814795623E-010
   7.5499999999999984E-002    -1.1757381828829371E-009
   7.6350000000000001E-002    -1.4517655806667913E-009
   7.7199999999999991E-002    -1.6228454411427078E-009
   7.8049999999999981E-002    -1.6543835220341012E-009
   7.8899999999999998E-002    -1.5208042425817982E-009
   7.9749999999999988E-002    -1.2096919423435871E-009
   8.0600000000000005E-002    -7.2516278120403395E-010
   8.1449999999999995E-002    -8.9945520781870278E-011
   8.2299999999999984E-002     6.5426966307334406E-010
   8.3150000000000002E-002     1.4484931086515362E-009
   8.3999999999999991E-002     2.2201634042850790E-009
   8.4849999999999981E-002     2.8887574001709764E-009
   8.5699999999999998E-002     3.3728773876899631E-009
   8.6549999999999988E-002     3.5982319088216526E-009
   8.7400000000000005E-002     3.5058081017343340E-009
   8.8249999999999995E-002     3.0594834825221544E-009
   8.9099999999999985E-002     2.2523404628354392E-009
   8.9950000000000002E-002     1.1110114187689716E-009
   9.0799999999999992E-002    -3.0252488159876945E-010
   9.1649999999999981E-002    -1.8921466421576608E-009
   9.2499999999999999E-002    -3.5320754796836408E-009
   9.3349999999999989E-002    -5.0747084972400503E-009
   9.4200000000000006E-002    -6.3615543238736546E-009
   9.5049999999999996E-002    -7.2367127554127878E-009
   9.5899999999999985E-002    -7.5619631521226306E-009
   9.6750000000000003E-002    -7.2321963783069241E-009
   9.7599999999999992E-002    -6.1896960371501241E-009
   9.8449999999999982E-002    -4.4356627940700969E-009
   9.9299999999999999E-002    -2.0374695349178259E-009
  0.10014999999999999          8.6955863559824831E-010
  0.10099999999999998          4.0865897181960267E-009
  0.10185000000000000          7.3621447716179061E-009
  0.10269999999999999          1.0408959188474756E-008
  0.10355000000000000          1.2925847830741003E-008
  0.10439999999999999          1.4623098186431240E-008
  0.10524999999999998          1.5249502660970154E-008
  0.10610000000000000          1.4618878305002467E-008
  0.10694999999999999          1.2633768275387595E-008
  0.10779999999999998          9.3040040891857118E-009
  0.10865000000000000          4.7579740275925262E-009
  0.10949999999999999         -7.5521684115632052E-010
  0.11035000000000000         -6.8739980167204174E-009
  0.11119999999999999         -1.3143463769890126E-008
  0.11204999999999998         -1.9044905730423353E-008
  0.11290000000000000         -2.4034191508705218E-008
  0.11374999999999999         -2.7586381442390024E-008
  0.11459999999999998         -2.9243143197396560E-008
  0.11545000000000000         -2.8658872309046172E-008
  0.11629999999999999         -2.5641282219102583E-008
  0.11715000000000000         -2.0182480174846568E-008
  0.11799999999999999         -1.2477099268395292E-008
  0.11884999999999998         -2.9249441236776208E-009
  0.11970000000000000          7.8832165733415750E-009
  0.12054999999999999          1.9196869174859944E-008
  0.12139999999999998          3.0152871575192077E-008
  0.12225000000000000          3.9835941028561830E-008
  0.12309999999999999          4.7348815329174804E-008
  0.12395000000000000          5.1887201535767319E-008
  0.12479999999999999          5.2813645827266026E-008
  0.12564999999999998          4.9723947432109936E-008
  0.12650000000000000          4.2499753833878712E-008
  0.12734999999999999          3.1341568506501097E-008
  0.12819999999999998          1.6777694443902662E-008
  0.12905000000000000         -3.5341525495060394E-010
  0.12989999999999999         -1.8947613439276406E-008
  0.13074999999999998         -3.7704050741507314E-008
  0.13159999999999999         -5.5214158542987405E-008
  0.13245000000000001         -7.0064291038235869E-008
  0.13329999999999997         -8.0944330520347830E-008
  0.13414999999999999         -8.6754088734505241E-008
  0.13500000000000001         -8.6699310128797647E-008
  0.13584999999999997         -8.0369635233285563E-008
  0.13669999999999999         -6.7791846799117233E-008
  0.13755000000000001         -4.9453253350260926E-008
  0.13839999999999997         -2.6291679967601045E-008
  0.13924999999999998          3.4920039217034147E-010
  0.14010000000000000          2.8797985840744035E-008
  0.14094999999999996          5.7163080429226600E-008
  0.14179999999999998          8.3462582827438326E-008
  0.14265000000000000          1.0576714303565338E-007
  0.14350000000000002          1.2234453811265209E-007
  0.14434999999999998          1.3179410824540778E-007
  0.14520000000000000          1.3315984695997630E-007
  0.14605000000000001          1.2601251357128932E-007
  0.14689999999999998          1.1049366650352502E-007
  0.14774999999999999          8.7318270616173801E-008
  0.14860000000000001          5.7735808517980175E-008
  0.14944999999999997          2.3452907052873648E-008
  0.15029999999999999         -1.3476761913073858E-008
  0.15115000000000001         -5.0787501924213287E-008
  0.15199999999999997         -8.6152112361845803E-008
  0.15284999999999999         -1.1733742044717777E-007
  0.15370000000000000         -1.4235375887535347E-007
  0.15454999999999997         -1.5958774338463412E-007
  0.15539999999999998         -1.6790761405904428E-007
  0.15625000000000000         -1.6673179983630636E-007
  0.15709999999999996         -1.5605401330159555E-007
  0.15794999999999998         -1.3642115380049161E-007
  0.15880000000000000         -1.0886485936095369E-007
  0.15965000000000001         -7.4792454783214287E-008
  0.16049999999999998         -3.5846831165628358E-008
  0.16134999999999999          6.2532007904744206E-009
  0.16220000000000001          4.9879340525882293E-008
  0.16304999999999997          9.3654135416350640E-008
  0.16389999999999999          1.3659243671795643E-007
  0.16475000000000001          1.7821263216717188E-007
  0.16559999999999997          2.1861118569697040E-007
  0.16644999999999999          2.5850057697099560E-007
  0.16730000000000000          2.9921439306890194E-007
  0.16814999999999997          3.4268139355474620E-007
  0.16899999999999998          3.9136902521027259E-007
  0.16985000000000000          4.4820020721132404E-007
  0.17069999999999996          5.1645345137136452E-007
  0.17154999999999998          5.9965764654733230E-007
  0.17240000000000000          7.0150010218498133E-007
  0.17325000000000002          8.2576247733657229E-007
  0.17409999999999998          9.7629571913730754E-007
  0.17494999999999999          1.1570464780719649E-006
  0.17580000000000001          1.3721431903971722E-006
  0.17664999999999997          1.6260387926171985E-006
  0.17749999999999999          1.9237121190856756E-006
  0.17835000000000001          2.2709193928578790E-006
  0.17919999999999997          2.6744805971709526E-006
  0.18004999999999999          3.1425780138007891E-006
  0.18090000000000001          3.6850418874523303E-006
  0.18174999999999997          4.3136229248710559E-006
  0.18259999999999998          5.0422358555448217E-006
  0.18345000000000000          5.8871736519512082E-006
  0.18429999999999996          6.8672806568231098E-006
  0.18514999999999998          8.0041059259581175E-006
  0.18600000000000000          9.3220526586098892E-006
  0.18684999999999996          1.0848515524918055E-005
  0.18769999999999998          1.2614036898050335E-005
  0.18855000000000000          1.4652456439342629E-005
  0.18940000000000001          1.7001080915677233E-005
  0.19024999999999997          1.9700869656726479E-005
  0.19109999999999999          2.2796688924949769E-005
  0.19195000000000001          2.6337628737025248E-005
  0.19279999999999997          3.0377371811203358E-005
  0.19364999999999999          3.4974637880212004E-005
  0.19450000000000001          4.0193641396894031E-005
  0.19534999999999997          4.6104521833145588E-005
  0.19619999999999999          5.2783733694117071E-005
  0.19705000000000000          6.0314383811911363E-005
  0.19789999999999996          6.8786667262243169E-005
  0.19874999999999998          7.8298241025210845E-005
  0.19960000000000000          8.8954647115617293E-005
  0.20044999999999996          1.0086948083421221E-004
  0.20129999999999998          1.1416419395971381E-004
  0.20215000000000000          1.2896760051284121E-004
  0.20300000000000001          1.4541538102061567E-004
  0.20384999999999998          1.6364984274896223E-004
  0.20469999999999999          1.8381955456306447E-004
  0.20555000000000001          2.0607842238838328E-004
  0.20639999999999997          2.3058472387221097E-004
  0.20724999999999999          2.5750006743821221E-004
  0.20810000000000001          2.8698801810399309E-004
  0.20894999999999997          3.1921256255071340E-004
  0.20979999999999999          3.5433633393356625E-004
  0.21065000000000000          3.9251902061127232E-004
  0.21149999999999997          4.3391528333465413E-004
  0.21234999999999998          4.7867302675975683E-004
  0.21320000000000000          5.2693038488040868E-004
  0.21404999999999996          5.7881211589505283E-004
  0.21489999999999998          6.3442588554957875E-004
  0.21575000000000000          6.9385908218327636E-004
  0.21659999999999996          7.5717606851321932E-004
  0.21744999999999998          8.2441280508045083E-004
  0.21829999999999999          8.9557222088226351E-004
  0.21915000000000001          9.7061986680817714E-004
  0.21999999999999997          1.0494777677148956E-003
  0.22084999999999999          1.1320195766695012E-003
  0.22170000000000001          1.2180656051390460E-003
  0.22254999999999997          1.3073778460870580E-003
  0.22339999999999999          1.3996549670389886E-003
  0.22425000000000000          1.4945270695335840E-003
  0.22509999999999997          1.5915508551484685E-003
  0.22594999999999998          1.6902050915312845E-003
  0.22680000000000000          1.7898873468132957E-003
  0.22764999999999996          1.8899097807518383E-003
  0.22849999999999998          1.9894994991143094E-003
  0.22935000000000000          2.0877956540987252E-003
  0.23019999999999996          2.1838428431926260E-003
  0.23104999999999998          2.2765929309376551E-003
  0.23190000000000000          2.3649086336616689E-003
  0.23275000000000001          2.4475665633204055E-003
  0.23359999999999997          2.5232588876705946E-003
  0.23444999999999999          2.5905935190128756E-003
  0.23530000000000001          2.6481024208560647E-003
  0.23614999999999997          2.6942563232833098E-003
  0.23699999999999999          2.7274759408161889E-003
  0.23785000000000001          2.7461419175708714E-003
  0.23869999999999997          2.7486023246516165E-003
  0.23954999999999999          2.7331828907880221E-003
  0.24040000000000000          2.6982076162072252E-003
  0.24124999999999996          2.6420239368758532E-003
  0.24209999999999998          2.5630242256783455E-003
  0.24295000000000000          2.4596670014329662E-003
  0.24379999999999996          2.3305005010157026E-003
  0.24464999999999998          2.1741810634822245E-003
  0.24550000000000000          1.9894998456962930E-003
  0.24634999999999996          1.7754078274362188E-003
  0.24719999999999998          1.5310411295455498E-003
  0.24804999999999999          1.2557521523430995E-003
  0.24890000000000001          9.4913086138849229E-004
  0.24974999999999997          6.1102361902147322E-004
  0.25059999999999999          2.4155188851318458E-004
  0.25145000000000001         -1.5886050148350298E-004
  0.25229999999999997         -5.8946354165562783E-004
  0.25314999999999999         -1.0491641391491048E-003
  0.25400000000000000         -1.5365099560974242E-003
  0.25484999999999997         -2.0496862421923402E-003
  0.25569999999999998         -2.5865052175411932E-003
  0.25655000000000000         -3.1444012617772108E-003
  0.25739999999999996         -3.7204372025930188E-003
  0.25824999999999998         -4.3113179407686967E-003
  0.25910000000000000         -4.9133992944310773E-003
  0.25994999999999996         -5.5226874495433037E-003
  0.26079999999999998         -6.1348616281698730E-003
  0.26164999999999999         -6.7453136853112498E-003
  0.26249999999999996         -7.3491967897432392E-003
  0.26334999999999997         -7.9414523820724760E-003
  0.26419999999999999         -8.5168278879739663E-003
  0.26505000000000001         -9.0699184048774889E-003
  0.26589999999999997         -9.5952314079370393E-003
  0.26674999999999999         -1.0087258051988759E-002
  0.26760000000000000         -1.0540530500204700E-002
  0.26844999999999997         -1.0949663942335626E-002
  0.26929999999999998         -1.1309411163549239E-002
  0.27015000000000000         -1.1614737061302369E-002
  0.27099999999999996         -1.1860886423858432E-002
  0.27184999999999998         -1.2043438396937101E-002
  0.27270000000000000         -1.2158353698940385E-002
  0.27354999999999996         -1.2202037760961430E-002
  0.27439999999999998         -1.2171403800725906E-002
  0.27524999999999999         -1.2063925519836156E-002
  0.27609999999999996         -1.1877677108082026E-002
  0.27694999999999997         -1.1611359422773811E-002
  0.27779999999999999         -1.1264336253505289E-002
  0.27865000000000001         -1.0836681089248571E-002
  0.27949999999999997         -1.0329209489511298E-002
  0.28034999999999999         -9.7434747862705437E-003
  0.28120000000000001         -9.0817622089052388E-003
  0.28204999999999997         -8.3470834070329906E-003
  0.28289999999999998         -7.5431545478332673E-003
  0.28375000000000000         -6.6744001408291873E-003
  0.28459999999999996         -5.7459272221316859E-003
  0.28544999999999998         -4.7634595142180738E-003
  0.28630000000000000         -3.7332894488623907E-003
  0.28714999999999996         -2.6622293364427767E-003
  0.28799999999999998         -1.5575718150355918E-003
  0.28885000000000000         -4.2702008783619834E-004
  0.28969999999999996          7.2139326565026033E-004
  0.29054999999999997          1.8793829285289449E-003
  0.29139999999999999          3.0385060649292970E-003
  0.29224999999999995          4.1902317144918372E-003
  0.29309999999999997          5.3260375414291381E-003
  0.29394999999999999          6.4374896830099084E-003
  0.29480000000000001          7.5163172272615323E-003
  0.29564999999999997          8.5545113886005865E-003
  0.29649999999999999          9.5444106307077201E-003
  0.29735000000000000          1.0478775779056437E-002
  0.29819999999999997          1.1350827249919452E-002
  0.29904999999999998          1.2154288626003179E-002
  0.29990000000000000          1.2883477995514533E-002
  0.30074999999999996          1.3533400423245152E-002
  0.30159999999999998          1.4099796824242204E-002
  0.30245000000000000          1.4579154610325828E-002
  0.30329999999999996          1.4968712579926697E-002
  0.30414999999999998          1.5266500492716325E-002
  0.30499999999999999          1.5471367404026526E-002
  0.30584999999999996          1.5582968469664926E-002
  0.30669999999999997          1.5601738796190284E-002
  0.30754999999999999          1.5528873266194570E-002
  0.30840000000000001          1.5366309043619984E-002
  0.30924999999999997          1.5116701549509382E-002
  0.31009999999999999          1.4783387694403544E-002
  0.31095000000000000          1.4370351138890944E-002
  0.31179999999999997          1.3882191779823288E-002
  0.31264999999999998          1.3324057552205728E-002
  0.31350000000000000          1.2701550229996587E-002
  0.31434999999999996          1.2020641189584406E-002
  0.31519999999999998          1.1287608884282530E-002
  0.31605000000000000          1.0509014585121358E-002
  0.31689999999999996          9.6916517365878731E-003
  0.31774999999999998          8.8424410079012642E-003
  0.31859999999999999          7.9683194296799893E-003
  0.31944999999999996          7.0761687475230780E-003
  0.32029999999999997          6.1727965223880611E-003
  0.32114999999999999          5.2649193467041236E-003
  0.32199999999999995          4.3591010456046249E-003
  0.32284999999999997          3.4616354419385593E-003
  0.32369999999999999          2.5784671787245795E-003
  0.32455000000000001          1.7151742592491433E-003
  0.32539999999999997          8.7696156634467959E-004
  0.32624999999999998          6.8654783231257869E-005
  0.32710000000000000         -7.0536966760052842E-004
  0.32794999999999996         -1.4412528194739272E-003
  0.32879999999999998         -2.1356602437859113E-003
  0.32965000000000000         -2.7857381650931061E-003
  0.33049999999999996         -3.3890824845365414E-003
  0.33134999999999998         -3.9437569555505099E-003
  0.33220000000000000         -4.4483175005214275E-003
  0.33304999999999996         -4.9018046230818318E-003
  0.33389999999999997         -5.3037259163484750E-003
  0.33474999999999999         -5.6540514574927141E-003
  0.33559999999999995         -5.9531757986847926E-003
  0.33644999999999997         -6.2018771428192093E-003
  0.33729999999999999         -6.4012993392165742E-003
  0.33815000000000001         -6.5529251628162200E-003
  0.33899999999999997         -6.6585432441624154E-003
  0.33984999999999999         -6.7202036671489412E-003
  0.34070000000000000         -6.7401622756279814E-003
  0.34154999999999996         -6.7208523434168230E-003
  0.34239999999999998         -6.6648648331764405E-003
  0.34325000000000000         -6.5749316599183361E-003