 -0.12000000000000000          0.0000000000000000
 -0.11914999999999999          0.0000000000000000
 -0.11830000000000000          0.0000000000000000
 -0.11745000000000000          0.0000000000000000
 -0.11660000000000000          0.0000000000000000
 -0.11574999999999999          0.0000000000000000
 -0.11490000000000000          0.0000000000000000
 -0.11405000000000000          0.0000000000000000
 -0.11320000000000000          0.0000000000000000
 -0.11234999999999999          0.0000000000000000
 -0.11150000000000000          0.0000000000000000
 -0.11065000000000000          4.9814587489611600E-030
 -0.10979999999999999          6.6283223780895953E-029
 -0.10894999999999999          3.6410116149902434E-028
 -0.10810000000000000          5.7750003127809770E-028
 -0.10725000000000000         -5.8646405511982553E-027
 -0.10639999999999999         -5.6300795099038537E-026
 -0.10554999999999999         -2.8504921744138622E-025
 -0.10470000000000000         -1.0277996840575949E-024
 -0.10385000000000000         -2.8106632796808962E-024
 -0.10299999999999999         -5.6932656243791434E-024
 -0.10214999999999999         -6.9089384835425128E-024
 -0.10130000000000000          4.2614039974953923E-024
 -0.10045000000000000          5.3269999304650141E-023
  -9.9599999999999994E-002     1.8096440519290801E-022
  -9.8750000000000004E-002     4.1854361400057654E-022
  -9.7900000000000001E-002     7.0615446947739825E-022
  -9.7049999999999997E-002     7.3252283497273446E-022
  -9.6199999999999994E-002    -2.6832386568509605E-022
  -9.5349999999999990E-002    -3.5884242959224627E-021
  -9.4500000000000001E-002    -1.0604733749904678E-020
  -9.3649999999999997E-002    -2.1289009454135226E-020
  -9.2799999999999994E-002    -3.1294226397901601E-020
  -9.1950000000000004E-002    -2.8102825538602110E-020
  -9.1100000000000000E-002     1.1445260828630734E-020
  -9.0249999999999997E-002     1.1738064351991760E-019
  -8.9399999999999993E-002     3.0979766040522141E-019
  -8.8549999999999990E-002     5.6361449539561079E-019
  -8.7700000000000000E-002     7.5772557321205746E-019
  -8.6849999999999997E-002     6.2885820600395885E-019
  -8.5999999999999993E-002    -2.2497079785897435E-019
  -8.5150000000000003E-002    -2.2252994631139086E-018
  -8.4300000000000000E-002    -5.5154277979693804E-018
  -8.3449999999999996E-002    -9.4754798014917019E-018
  -8.2600000000000007E-002    -1.2168420293119912E-017
  -8.1749999999999989E-002    -1.0025579145967524E-017
  -8.0900000000000000E-002     1.7271520140964069E-018
  -8.0049999999999996E-002     2.7334766319348953E-017
  -7.9199999999999993E-002     6.7140156119465795E-017
  -7.8350000000000003E-002     1.1294121364221436E-016
  -7.7499999999999999E-002     1.4362530787743524E-016
  -7.6649999999999996E-002     1.2402937646923710E-016
  -7.5800000000000006E-002     1.0949662774611763E-017
  -7.4949999999999989E-002    -2.3017992855295565E-016
  -7.4099999999999999E-002    -5.9723841663764004E-016
  -7.3249999999999996E-002    -1.0170376197496744E-015
  -7.2399999999999992E-002    -1.3176523277577676E-015
  -7.1550000000000002E-002    -1.2282720187535883E-015
  -7.0699999999999999E-002    -4.3057241278748352E-016
  -6.9849999999999995E-002     1.3211327886211501E-015
  -6.9000000000000006E-002     4.0147697547061410E-015
  -6.8149999999999988E-002     7.1698007890194164E-015
  -6.7299999999999999E-002     9.6836744415181745E-015
  -6.6449999999999995E-002     9.8535800426870411E-015
  -6.5599999999999992E-002     5.6964432827518609E-015
  -6.4750000000000002E-002    -4.3599424626224978E-015
  -6.3899999999999998E-002    -2.0460721693779152E-014
  -6.3049999999999995E-002    -4.0208558239906978E-014
  -6.2199999999999998E-002    -5.7874078601169901E-014
  -6.1350000000000002E-002    -6.4499672885470844E-014
  -6.0499999999999998E-002    -4.9449503171925142E-014
  -5.9650000000000002E-002    -3.6969013048339057E-015
  -5.8799999999999998E-002     7.5406899588378230E-014
  -5.7950000000000002E-002     1.7891487351042793E-013
  -5.7099999999999998E-002     2.8245740401105504E-013
  -5.6249999999999994E-002     3.4617957572168782E-013
  -5.5400000000000005E-002     3.2070051147517561E-013
  -5.4550000000000001E-002     1.6026822517630909E-013
  -5.3699999999999998E-002    -1.5784977111358729E-013
  -5.2849999999999994E-002    -6.1162198149579947E-013
  -5.2000000000000005E-002    -1.1170143748323214E-012
  -5.1150000000000001E-002    -1.5240647361861037E-012
  -5.0299999999999997E-002    -1.6347214058211132E-012
  -4.9449999999999994E-002    -1.2472389279486178E-012
  -4.8600000000000004E-002    -2.2475309759763433E-013
  -4.7750000000000001E-002     1.4241391000429444E-012
  -4.6899999999999997E-002     3.4750100578411582E-012
  -4.6049999999999994E-002     5.4565855511854529E-012
  -4.5200000000000004E-002     6.6880997346426278E-012
  -4.4350000000000001E-002     6.4039167246107551E-012
  -4.3499999999999997E-002     3.9632696102547209E-012
  -4.2649999999999993E-002    -8.8614216578116935E-013
  -4.1800000000000004E-002    -7.7532618202456670E-012
  -4.0950000000000000E-002    -1.5443274739258170E-011
  -4.0099999999999997E-002    -2.1982152101353732E-011
  -3.9249999999999993E-002    -2.4894554893754854E-011
  -3.8400000000000004E-002    -2.1749917368134780E-011
  -3.7550000000000000E-002    -1.0914109600127384E-011
  -3.6699999999999997E-002     7.6434721131355360E-012
  -3.5850000000000007E-002     3.1710426977628403E-011
  -3.5000000000000003E-002     5.6613314568823142E-011
  -3.4150000000000000E-002     7.5639397559445090E-011
  -3.3299999999999996E-002     8.1203095784368611E-011
  -3.2450000000000007E-002     6.6680144396028876E-011
  -3.1600000000000003E-002     2.8610864770383031E-011
  -3.0750000000000000E-002    -3.1229754534357634E-011
  -2.9899999999999996E-002    -1.0452365867419927E-010
  -2.9050000000000006E-002    -1.7647445060274230E-010
  -2.8200000000000003E-002    -2.2766388154293951E-010
  -2.7349999999999999E-002    -2.3774862957000968E-010
  -2.6499999999999996E-002    -1.9055301545370484E-010
  -2.5650000000000006E-002    -7.9608955188075404E-011
  -2.4800000000000003E-002     8.7209245610612694E-011
  -2.3949999999999999E-002     2.8542771655297481E-010
  -2.3099999999999996E-002     4.7536147568255093E-010
  -2.2250000000000006E-002     6.0777952599215268E-010
  -2.1400000000000002E-002     6.3354639445519054E-010
  -2.0549999999999999E-002     5.1582577283774860E-010
  -1.9699999999999995E-002     2.4242933156666278E-010
  -1.8850000000000006E-002    -1.6473932858090627E-010
  -1.8000000000000002E-002    -6.4620238485422894E-010
  -1.7149999999999999E-002    -1.1096721792602875E-009
  -1.6299999999999995E-002    -1.4438288967306365E-009
  -1.5450000000000005E-002    -1.5398558488226331E-009
  -1.4600000000000002E-002    -1.3173034125308342E-009
  -1.3749999999999998E-002    -7.4908277500901763E-010
  -1.2899999999999995E-002     1.2044998050819709E-010
  -1.2050000000000005E-002     1.1700038458378804E-009
  -1.1200000000000002E-002     2.2122118363691334E-009
  -1.0349999999999998E-002     3.0215750941284916E-009
  -9.5000000000000084E-003     3.3763574378607243E-009
  -8.6500000000000049E-003     3.1075643720780797E-009
  -7.8000000000000014E-003     2.1452872277809230E-009
  -6.9499999999999978E-003     5.5173075718039823E-010
  -6.1000000000000082E-003    -1.4686032464632169E-009
  -5.2500000000000047E-003    -3.5874532196613319E-009
  -4.4000000000000011E-003    -5.4004326320817833E-009
  -3.5499999999999976E-003    -6.4979157260366886E-009
  -2.7000000000000079E-003    -6.5473096847579781E-009
  -1.8500000000000044E-003    -5.3709369271530617E-009
  -1.0000000000000009E-003    -3.0026010258374177E-009
  -1.4999999999999736E-004     2.9141946531984077E-010
   6.9999999999999230E-004     4.0353877367483265E-009
   1.5499999999999958E-003     7.6109805883200459E-009
   2.3999999999999994E-003     1.0358800975807369E-008
   3.2500000000000029E-003     1.1697152736120982E-008
   4.0999999999999925E-003     1.1235707932865196E-008
   4.9499999999999961E-003     8.8612740480539993E-009
   5.7999999999999996E-003     4.7770613259500695E-009
   6.6499999999999893E-003    -5.1428551073005073E-010
   7.5000000000000067E-003    -6.2826063967191388E-009
   8.3499999999999963E-003    -1.1684401623520697E-008
   9.1999999999999860E-003    -1.5897523614885342E-008
   1.0050000000000003E-002    -1.8250434749369411E-008
   1.0899999999999993E-002    -1.8321565223046305E-008
   1.1750000000000010E-002    -1.5991628611610353E-008
   1.2600000000000000E-002    -1.1442621117399465E-008
   1.3449999999999990E-002    -5.1102335654369976E-009
   1.4300000000000007E-002     2.3934729239823765E-009
   1.5149999999999997E-002     1.0364326347009352E-008
   1.5999999999999986E-002     1.8075263457086509E-008
   1.6850000000000004E-002     2.4816248445233864E-008
   1.7699999999999994E-002     2.9903977174387762E-008
   1.8549999999999983E-002     3.2672877088777253E-008
   1.9400000000000001E-002     3.2471120321812306E-008
   2.0249999999999990E-002     2.8689845356910092E-008
   2.1100000000000008E-002     2.0846340868122069E-008
   2.1949999999999997E-002     8.7287926528455783E-009
   2.2799999999999987E-002    -7.4133124170818573E-009
   2.3650000000000004E-002    -2.6672810482441818E-008
   2.4499999999999994E-002    -4.7341620444994138E-008
   2.5349999999999984E-002    -6.6886306000192851E-008
   2.6200000000000001E-002    -8.2099698110579242E-008
   2.7049999999999991E-002    -8.9458536911272434E-008
   2.7900000000000008E-002    -8.5671830126190393E-008
   2.8749999999999998E-002    -6.8359558504904067E-008
   2.9599999999999987E-002    -3.6750165153254801E-008
   3.0450000000000005E-002     7.7457534235522088E-009
   3.1299999999999994E-002     6.1231408905279140E-008
   3.2149999999999984E-002     1.1741508091857573E-007
   3.3000000000000002E-002     1.6816188807265987E-007
   3.3849999999999991E-002     2.0449508080905599E-007
   3.4700000000000009E-002     2.1794137072721961E-007
   3.5549999999999998E-002     2.0203504682191985E-007
   3.6399999999999988E-002     1.5373458551007628E-007
   3.7250000000000005E-002     7.4489824107006331E-008
   3.8099999999999995E-002    -2.9276835686361383E-008
   3.8949999999999985E-002    -1.4643359979178443E-007
   3.9800000000000002E-002    -2.6219158276158396E-007
   4.0649999999999992E-002    -3.5986465548958048E-007
   4.1500000000000009E-002    -4.2312207307284557E-007
   4.2349999999999999E-002    -4.3842775845977849E-007
   4.3199999999999988E-002    -3.9729997116791072E-007
   4.4050000000000006E-002    -2.9803555851991890E-007
   4.4899999999999995E-002    -1.4660628178261069E-007
   4.5749999999999985E-002     4.3454737235046051E-008
   4.6600000000000003E-002     2.5221152760425910E-007
   4.7449999999999992E-002     4.5541739534052340E-007
   4.8299999999999982E-002     6.2728197404850995E-007
   4.9149999999999999E-002     7.4357400376358230E-007
   4.9999999999999989E-002     7.8466407903570955E-007
   5.0850000000000006E-002     7.3813285749034890E-007
   5.1699999999999996E-002     6.0062793006069839E-007
   5.2549999999999986E-002     3.7876625457093675E-007
   5.3400000000000003E-002     8.8979639147461892E-008
   5.4249999999999993E-002    -2.4364158008629571E-007
   5.5099999999999982E-002    -5.8739808819318241E-007
   5.5950000000000000E-002    -9.0670376703507568E-007
   5.6799999999999989E-002    -1.1652583190928005E-006
   5.7650000000000007E-002    -1.3294236441627762E-006
   5.8499999999999996E-002    -1.3715780036443742E-006
   5.9349999999999986E-002    -1.2732439345105941E-006
   6.0200000000000004E-002    -1.0277620707402373E-006
   6.1049999999999993E-002    -6.4232646944803634E-007
   6.1899999999999983E-002    -1.3909291366587760E-007
   6.2750000000000000E-002     4.4486119675075630E-007
   6.3599999999999990E-002     1.0590065194153360E-006
   6.4450000000000007E-002     1.6424487053668588E-006
   6.5299999999999997E-002     2.1286953890879683E-006
   6.6149999999999987E-002     2.4519717315566180E-006
   6.7000000000000004E-002     2.5546495414000267E-006
   6.7849999999999994E-002     2.3951350642214109E-006
   6.8699999999999983E-002     1.9552164867545681E-006
   6.9550000000000001E-002     1.2458201447675808E-006
   7.0399999999999990E-002     3.1005155042220057E-007
   7.1249999999999980E-002    -7.7733622752530090E-007
   7.2099999999999997E-002    -1.9146177792353926E-006
   7.2949999999999987E-002    -2.9817677103768525E-006
   7.3800000000000004E-002    -3.8525999560477502E-006
   7.4649999999999994E-002    -4.4090497690605358E-006
   7.5499999999999984E-002    -4.5559557728528463E-006
   7.6350000000000001E-002    -4.2344555484365159E-006
   7.7199999999999991E-002    -3.4321345825638720E-006
   7.8049999999999981E-002    -2.1884113665459678E-006
   7.8899999999999998E-002    -5.9425170124146728E-007
   7.9749999999999988E-002     1.2140576639359117E-006
   8.0600000000000005E-002     3.0666190928277581E-006
   8.1449999999999995E-002     4.7759261727055479E-006
   8.2299999999999984E-002     6.1555368023777158E-006
   8.3150000000000002E-002     7.0395500802194430E-006
   8.3999999999999991E-002     7.3007917502011970E-006
   8.4849999999999981E-002     6.8659671571989665E-006
   8.5699999999999998E-002     5.7261311610482741E-006
   8.6549999999999988E-002     3.9413218010724159E-006
   8.7400000000000005E-002     1.6386264253278368E-006
   8.8249999999999995E-002    -9.9627716014104734E-007
   8.9099999999999985E-002    -3.7338883413024377E-006
   8.9950000000000002E-002    -6.3206644798066099E-006
   9.0799999999999992E-002    -8.5023335151631483E-006
   9.1649999999999981E-002    -1.0048422230038667E-005
   9.2499999999999999E-002    -1.0775765098572474E-005
   9.3349999999999989E-002    -1.0568307195178505E-005
   9.4200000000000006E-002    -9.3911754810456952E-006
   9.5049999999999996E-002    -7.2971665528907161E-006
   9.5899999999999985E-002    -4.4249595947712436E-006
   9.6750000000000003E-002    -9.8907891300819763E-007
   9.7599999999999992E-002     2.7373541354626693E-006
   9.8449999999999982E-002     6.4453014826291024E-006
   9.9299999999999999E-002     9.8155728360092553E-006
  0.10014999999999999          1.2545541102196332E-005
  0.10099999999999998          1.4374198572705938E-005
  0.10185000000000000          1.5104295636878557E-005
  0.10269999999999999          1.4619659542766652E-005
  0.10355000000000000          1.2897224281017508E-005
  0.10439999999999999          1.0012729780577250E-005
  0.10524999999999998          6.1397364922615914E-006
  0.10610000000000000          1.5415786299904143E-006
  0.10694999999999999         -3.4442010527931964E-006
  0.10779999999999998         -8.4286142027982351E-006
  0.10865000000000000         -1.3000440795364506E-005
  0.10949999999999999         -1.6760139138961500E-005
  0.11035000000000000         -1.9355802283954369E-005
  0.11119999999999999         -2.0517524023977091E-005
  0.11204999999999998         -2.0086113685351925E-005
  0.11290000000000000         -1.8032648696752011E-005
  0.11374999999999999         -1.4465422122511953E-005
  0.11459999999999998         -9.6235284309041783E-006
  0.11545000000000000         -3.8570215049110159E-006
  0.11629999999999999          2.4037118925706939E-006
  0.11715000000000000          8.6855428071115187E-006
  0.11799999999999999          1.4512851267137087E-005
  0.11884999999999998          1.9445587060484980E-005
  0.11970000000000000          2.3111626867479891E-005
  0.12054999999999999          2.5231106450726183E-005
  0.12139999999999998          2.5632040495618880E-005
  0.12225000000000000          2.4257413647898413E-005
  0.12309999999999999          2.1165483841186268E-005
  0.12395000000000000          1.6524140587328823E-005
  0.12479999999999999          1.0601017148234205E-005
  0.12564999999999998          3.7495748436672574E-006
  0.12650000000000000         -3.6089912603205106E-006
  0.12734999999999999         -1.1007726667756675E-005
  0.12819999999999998         -1.7960460858961403E-005
  0.12905000000000000         -2.3991522529032370E-005
  0.12989999999999999         -2.8666942906165344E-005
  0.13074999999999998         -3.1625338330147389E-005
  0.13159999999999999         -3.2604931881064002E-005
  0.13245000000000001         -3.1464087701517275E-005
  0.13329999999999997         -2.8193944722152283E-005
  0.13414999999999999         -2.2921693977259389E-005
  0.13500000000000001         -1.5905639917470438E-005
  0.13584999999999997         -7.5224361809994224E-006
  0.13669999999999999          1.7507337739865277E-006
  0.13755000000000001          1.1358870287285722E-005
  0.13839999999999997          2.0695284785471210E-005
  0.13924999999999998          2.9131706372878924E-005
  0.14010000000000000          3.6052944924663045E-005
  0.14094999999999996          4.0895872671837043E-005
  0.14179999999999998          4.3193135853012818E-005
  0.14265000000000000          4.2618179062783207E-005
  0.14350000000000002          3.9027349536287688E-005
  0.14434999999999998          3.2494109626826054E-005
  0.14520000000000000          2.3327609599552320E-005
  0.14605000000000001          1.2070929811015810E-005
  0.14689999999999998         -5.2544474195562899E-007
  0.14774999999999999         -1.3554577179735198E-005
  0.14860000000000001         -2.6025276108994835E-005
  0.14944999999999997         -3.6948835405129492E-005
  0.15029999999999999         -4.5429877426605590E-005
  0.15115000000000001         -5.0751419214234584E-005
  0.15199999999999997         -5.2443961850793490E-005
  0.15284999999999999         -5.0330691369458320E-005
  0.15370000000000000         -4.4544795207538489E-005
  0.15454999999999997         -3.5517278891369036E-005
  0.15539999999999998         -2.3939067555156143E-005
  0.15625000000000000         -1.0700561409832166E-005
  0.15709999999999996          3.1835110210565311E-006
  0.15794999999999998          1.6657765669342100E-005
  0.15880000000000000          2.8711225062695684E-005
  0.15965000000000001          3.8457914595672567E-005
  0.16049999999999998          4.5206833059974092E-005
  0.16134999999999999          4.8516402564001273E-005
  0.16220000000000001          4.8228993503634158E-005
  0.16304999999999997          4.4482080017807530E-005
  0.16389999999999999          3.7693872602199245E-005
  0.16475000000000001          2.8523601497495015E-005
  0.16559999999999997          1.7809641745629990E-005
  0.16644999999999999          6.4900947369852775E-006
  0.16730000000000000         -4.4856048715240096E-006
  0.16814999999999997         -1.4244849076429081E-005
  0.16899999999999998         -2.2070643565525433E-005
  0.16985000000000000         -2.7462143732618244E-005
  0.17069999999999996         -3.0171384491061940E-005
  0.17154999999999998         -3.0213246069586369E-005
  0.17240000000000000         -2.7849779926164945E-005
  0.17325000000000002         -2.3551570974446294E-005
  0.17409999999999998         -1.7942129725892516E-005
  0.17494999999999999         -1.1731160220182296E-005
  0.17580000000000001         -5.6426929626276326E-006
  0.17664999999999997         -3.4418090997501546E-007
  0.17749999999999999          3.6193843970439988E-006
  0.17835000000000001          5.8808354311706373E-006
  0.17919999999999997          6.2916027151665451E-006
  0.18004999999999999          4.9426130996209303E-006
  0.18090000000000001          2.1618112921500287E-006
  0.18174999999999997         -1.5161818330267798E-006
  0.18259999999999998         -5.4085002945514222E-006
  0.18345000000000000         -8.7667593430952913E-006
  0.18429999999999996         -1.0877833560951664E-005
  0.18514999999999998         -1.1169253993078205E-005
  0.18600000000000000         -9.3052348200498419E-006
  0.18684999999999996         -5.2556546927212857E-006
  0.18769999999999998          6.7365668023700637E-007
  0.18855000000000000          7.8606938938821380E-006
  0.18940000000000001          1.5437956907093058E-005
  0.19024999999999997          2.2403571069079420E-005
  0.19109999999999999          2.7760597384041362E-005
  0.19195000000000001          3.0662304564907927E-005
  0.19279999999999997          3.0541016276710107E-005
  0.19364999999999999          2.7193454548348477E-005
  0.19450000000000001          2.0821036450241401E-005
  0.19534999999999997          1.2007794226632934E-005
  0.19619999999999999          1.6446960802272220E-006
  0.19705000000000000         -9.1868599503852491E-006
  0.19789999999999996         -1.9355298601935635E-005
  0.19874999999999998         -2.7820179228345948E-005
  0.19960000000000000         -3.3759295371967851E-005
  0.20044999999999996         -3.6669502377909534E-005
  0.20129999999999998         -3.6413420407461297E-005
  0.20215000000000000         -3.3230367750781154E-005
  0.20300000000000001         -2.7716509983673821E-005
  0.20384999999999998         -2.0748484404870747E-005
  0.20469999999999999         -1.3380988096948897E-005
  0.20555000000000001         -6.7453003243101669E-006
  0.20639999999999997         -1.9034902507314067E-006
  0.20724999999999999          2.7909713526920643E-007
  0.20810000000000001         -7.6813968965409491E-007
  0.20894999999999997         -5.2265545085704587E-006
  0.20979999999999999         -1.2870041773448455E-005
  0.21065000000000000         -2.3089837989410005E-005
  0.21149999999999997         -3.4895587638132352E-005
  0.21234999999999998         -4.7135479154722154E-005
  0.21320000000000000         -5.8601587255721248E-005
  0.21404999999999996         -6.8202035519036356E-005
  0.21489999999999998         -7.5119131765882585E-005
  0.21575000000000000         -7.8990476839681335E-005
  0.21659999999999996         -7.9892412716949700E-005
  0.21744999999999998         -7.8423318848166570E-005
  0.21829999999999999         -7.5640611140463256E-005
  0.21915000000000001         -7.2869244594565071E-005
  0.21999999999999997         -7.1627348346301820E-005
  0.22084999999999999         -7.3394157448009392E-005
  0.22170000000000001         -7.9441130066735743E-005
  0.22254999999999997         -9.0634487442737839E-005
  0.22339999999999999         -1.0748259332510000E-004
  0.22425000000000000         -1.2983511484210148E-004
  0.22509999999999997         -1.5701720779001517E-004
  0.22594999999999998         -1.8771091471972458E-004
  0.22680000000000000         -2.2041580930044343E-004
  0.22764999999999996         -2.5280989084269681E-004
  0.22849999999999998         -2.8275908853752084E-004
  0.22935000000000000         -3.0788955306186014E-004
  0.23019999999999996         -3.2578925024329938E-004
  0.23104999999999998         -3.3479726000744327E-004
  0.23190000000000000         -3.3359739062106987E-004
  0.23275000000000001         -3.2116808061593459E-004
  0.23359999999999997         -2.9812890021072317E-004
  0.23444999999999999         -2.6594899940658750E-004
  0.23530000000000001         -2.2631191982355311E-004
  0.23614999999999997         -1.8244358615473243E-004
  0.23699999999999999         -1.3721036752968629E-004
  0.23785000000000001         -9.3989916417027032E-005
  0.23869999999999997         -5.4877177752873737E-005
  0.23954999999999999         -2.2110188369711387E-005
  0.24040000000000000          4.7772017745656720E-006
  0.24124999999999996          2.6810128133788060E-005
  0.24209999999999998          4.6704768627772221E-005
  0.24295000000000000          6.8400568696234875E-005
  0.24379999999999996          9.8108808359831468E-005
  0.24464999999999998          1.3937064872056342E-004
  0.24550000000000000          1.9835471895136519E-004
  0.24634999999999996          2.7957341305129713E-004
  0.24719999999999998          3.8609478332426712E-004
  0.24804999999999999          5.2054215786682219E-004
  0.24890000000000001          6.8386246850437617E-004
  0.24974999999999997          8.7578151173948711E-004
  0.25059999999999999          1.0923248535194023E-003
  0.25145000000000001          1.3321378370128858E-003
  0.25229999999999997          1.5904050754060452E-003
  0.25314999999999999          1.8604872414225994E-003
  0.25400000000000000          2.1396793253316984E-003
  0.25484999999999997          2.4188771831555227E-003
  0.25569999999999998          2.6956763753093558E-003
  0.25655000000000000          2.9651382202298482E-003
  0.25739999999999996          3.2218988086186230E-003
  0.25824999999999998          3.4613474931314138E-003
  0.25910000000000000          3.6855561193350275E-003
  0.25994999999999996          3.8903590226603561E-003
  0.26079999999999998          4.0806870593808166E-003
  0.26164999999999999          4.2449400554094366E-003
  0.26249999999999996          4.3894162875953721E-003
  0.26334999999999997          4.5038036354173609E-003
  0.26419999999999999          4.5812077707022072E-003
  0.26505000000000001          4.6141463063188622E-003
  0.26589999999999997          4.5905600740604909E-003
  0.26674999999999999          4.5067777864088599E-003
  0.26760000000000000          4.3470731384811084E-003
  0.26844999999999997          4.0931144009331965E-003
  0.26929999999999998          3.7300510122263357E-003
  0.27015000000000000          3.2494046265033627E-003
  0.27099999999999996          2.6426629210520771E-003
  0.27184999999999998          1.8897149709757549E-003
  0.27270000000000000          9.8791568266232534E-004
  0.27354999999999996         -7.5548797237689862E-005
  0.27439999999999998         -1.2730452406711844E-003
  0.27524999999999999         -2.6232706680049517E-003
  0.27609999999999996         -4.0934721398137811E-003
  0.27694999999999997         -5.6774100344909560E-003
  0.27779999999999999         -7.3649301461163278E-003
  0.27865000000000001         -9.1161799093085229E-003
  0.27949999999999997         -1.0899684822999901E-002
  0.28034999999999999         -1.2708310000704387E-002
  0.28120000000000001         -1.4485922702432994E-002
  0.28204999999999997         -1.6223838294661088E-002
  0.28289999999999998         -1.7896915404019779E-002
  0.28375000000000000         -1.9439571451834201E-002
  0.28459999999999996         -2.0832460063112509E-002
  0.28544999999999998         -2.2037487877635081E-002
  0.28630000000000000         -2.3017014165836475E-002
  0.28714999999999996         -2.3767408359655164E-002
  0.28799999999999998         -2.4265937953504943E-002
  0.28885000000000000         -2.4429774315991783E-002
  0.28969999999999996         -2.4256522940520876E-002
  0.29054999999999997         -2.3753194206063942E-002
  0.29139999999999999         -2.2858188563706423E-002
  0.29224999999999995         -2.1584915753890418E-002
  0.29309999999999997         -1.9876409061380076E-002
  0.29394999999999999         -1.7767528301369552E-002
  0.29480000000000001         -1.5224741754361483E-002
  0.29564999999999997         -1.2286586358368972E-002
  0.29649999999999999         -8.9274679380277541E-003
  0.29735000000000000         -5.2001561084203110E-003
  0.29819999999999997         -1.1173145126460332E-003
  0.29904999999999998          3.2736712676376266E-003
  0.29990000000000000          7.8979768277483813E-003
  0.30074999999999996          1.2699454702359520E-002
  0.30159999999999998          1.7609663605255812E-002
  0.30245000000000000          2.2565445828527878E-002
  0.30329999999999996          2.7459196586184176E-002
  0.30414999999999998          3.2238993719092196E-002
  0.30499999999999999          3.6838725237330464E-002
  0.30584999999999996          4.1169021412454938E-002
  0.30669999999999997          4.5162690372265363E-002
  0.30754999999999999          4.8712581356833484E-002
  0.30840000000000001          5.1768762046816498E-002
  0.30924999999999997          5.4213272720373538E-002
  0.31009999999999999          5.6000827116395986E-002
  0.31095000000000000          5.7085849508582261E-002
  0.31179999999999997          5.7436181246458412E-002
  0.31264999999999998          5.7009680287314284E-002
  0.31350000000000000          5.5801332385030593E-002
  0.31434999999999996          5.3812775460061683E-002
  0.31519999999999998          5.1062220815845216E-002
  0.31605000000000000          4.7562599445318550E-002
  0.31689999999999996          4.3330372399515503E-002
  0.31774999999999998          3.8402793129943470E-002
  0.31859999999999999          3.2827537078304880E-002
  0.31944999999999996          2.6637341870895635E-002
  0.32029999999999997          1.9928152681187462E-002
  0.32114999999999999          1.2771859863016545E-002
  0.32199999999999995          5.2755175419097241E-003
  0.32284999999999997         -2.4603569926280686E-003
  0.32369999999999999         -1.0359760898593921E-002
  0.32455000000000001         -1.8282680096459676E-002
  0.32539999999999997         -2.6090623871647206E-002
  0.32624999999999998         -3.3689892524998363E-002
  0.32710000000000000         -4.0953393801261874E-002
  0.32794999999999996         -4.7754191552613311E-002
  0.32879999999999998         -5.4048018068196722E-002
  0.32965000000000000         -5.9713977540860302E-002
  0.33049999999999996         -6.4638687084369095E-002
  0.33134999999999998         -6.8785742269822037E-002
  0.33220000000000000         -7.2072615284252267E-002
  0.33304999999999996         -7.4463253262659138E-002
  0.33389999999999997         -7.5915234208453392E-002
  0.33474999999999999         -7.6433949643647026E-002
  0.33559999999999995         -7.6019462069590968E-002
  0.33644999999999997         -7.4678651686533204E-002
  0.33729999999999999         -7.2408143375286851E-002
  0.33815000000000001         -6.9254328879236146E-002
  0.33899999999999997         -6.5292131903402884E-002
  0.33984999999999999         -6.0564319885613921E-002
  0.34070000000000000         -5.5069608097432596E-002
  0.34154999999999996         -4.8904514799683219E-002
  0.34239999999999998         -4.2107946548177858E-002
  0.34325000000000000         -3.4846360168553372E-002