 -0.12000000000000000          0.0000000000000000
 -0.11914999999999999          0.0000000000000000
 -0.11830000000000000          0.0000000000000000
 -0.11745000000000000          0.0000000000000000
 -0.11660000000000000          0.0000000000000000
 -0.11574999999999999          0.0000000000000000
 -0.11490000000000000          0.0000000000000000
 -0.11405000000000000          0.0000000000000000
 -0.11320000000000000          0.0000000000000000
 -0.11234999999999999          0.0000000000000000
 -0.11150000000000000          0.0000000000000000
 -0.11065000000000000          0.0000000000000000
 -0.10979999999999999          0.0000000000000000
 -0.10894999999999999         -1.2204032101455272E-028
 -0.10810000000000000         -2.8746368856206235E-027
 -0.10725000000000000         -2.5884224496408487E-026
 -0.10639999999999999         -1.2858659772696111E-025
 -0.10554999999999999         -3.0957936980124608E-025
 -0.10470000000000000          3.6732657719464007E-025
 -0.10385000000000000          6.5222251693349016E-024
 -0.10299999999999999          2.9776368883696914E-023
 -0.10214999999999999          8.0098807229998817E-023
 -0.10130000000000000          1.1166924866263780E-022
 -0.10045000000000000         -1.1283635605448575E-022
  -9.9599999999999994E-002    -1.1777621615893779E-021
  -9.8750000000000004E-002    -3.8306920475000679E-021
  -9.7900000000000001E-002    -7.6748475684554555E-021
  -9.7049999999999997E-002    -7.9652562007424527E-021
  -9.6199999999999994E-002     8.6134975756563215E-021
  -9.5349999999999990E-002     6.3907425711072394E-020
  -9.4500000000000001E-002     1.7267340309508527E-019
  -9.3649999999999997E-002     2.9863531788614590E-019
  -9.2799999999999994E-002     2.8463841653207562E-019
  -9.1950000000000004E-002    -1.9774711544458768E-019
  -9.1100000000000000E-002    -1.5694289080932117E-018
  -9.0249999999999997E-002    -3.9850334722541625E-018
  -8.9399999999999993E-002    -6.6153857454498987E-018
  -8.8549999999999990E-002    -6.7751662357898463E-018
  -8.7700000000000000E-002     3.9775033064053830E-019
  -8.6849999999999997E-002     2.0492384058320791E-017
  -8.5999999999999993E-002     5.5365150312630395E-017
  -8.5150000000000003E-002     9.5574898537886641E-017
  -8.4300000000000000E-002     1.1234058985344092E-016
  -8.3449999999999996E-002     5.5460992268755027E-017
  -8.2600000000000007E-002    -1.3343477748199579E-016
  -8.1749999999999989E-002    -4.8424963357445675E-016
  -8.0900000000000000E-002    -9.3937480797448784E-016
  -8.0049999999999996E-002    -1.2910723681625125E-015
  -7.9199999999999993E-002    -1.1565091904400206E-015
  -7.8350000000000003E-002    -4.7308772083566637E-017
  -7.7499999999999999E-002     2.4171970762977074E-015
  -7.6649999999999996E-002     6.1502729180219091E-015
  -7.5800000000000006E-002     1.0177757377584606E-014
  -7.4949999999999989E-002     1.2356287878519642E-014
  -7.4099999999999999E-002     9.5177257786570394E-015
  -7.3249999999999996E-002    -1.6737810119676131E-015
  -7.2399999999999992E-002    -2.3025167135120870E-014
  -7.1550000000000002E-002    -5.2499001111712789E-014
  -7.0699999999999999E-002    -8.1992010152077530E-014
  -6.9849999999999995E-002    -9.6410869582740314E-014
  -6.9000000000000006E-002    -7.5497253970948294E-014
  -6.8149999999999988E-002     4.2266158572718397E-016
  -6.7299999999999999E-002     1.4061277694426686E-013
  -6.6449999999999995E-002     3.3166649206771692E-013
  -6.5599999999999992E-002     5.2669812718801984E-013
  -6.4750000000000002E-002     6.4185706949267720E-013
  -6.3899999999999998E-002     5.6669424201282217E-013
  -6.3049999999999995E-002     1.9312996010974336E-013
  -6.2199999999999998E-002    -5.3720793138252551E-013
  -6.1350000000000002E-002    -1.5754551424448015E-012
  -6.0499999999999998E-002    -2.7152650799421731E-012
  -5.9650000000000002E-002    -3.5748007288452146E-012
  -5.8799999999999998E-002    -3.6373659035936009E-012
  -5.7950000000000002E-002    -2.3686478095921103E-012
  -5.7099999999999998E-002     5.9169813099512813E-013
  -5.6249999999999994E-002     5.1962804233819471E-012
  -5.5400000000000005E-002     1.0778819504824923E-011
  -5.4550000000000001E-002     1.5954165434169158E-011
  -5.3699999999999998E-002     1.8720139796938111E-011
  -5.2849999999999994E-002     1.6821842764763690E-011
  -5.2000000000000005E-002     8.3749283287528554E-012
  -5.1150000000000001E-002    -7.3444919073317790E-012
  -5.0299999999999997E-002    -2.9127456106651956E-011
  -4.9449999999999994E-002    -5.3326355376253837E-011
  -4.8600000000000004E-002    -7.3873322372904708E-011
  -4.7750000000000001E-002    -8.3013650527260503E-011
  -4.6899999999999997E-002    -7.2802815904112300E-011
  -4.6049999999999994E-002    -3.7222467965277625E-011
  -4.5200000000000004E-002     2.5434526143958499E-011
  -4.4350000000000001E-002     1.1042381503875812E-010
  -4.3499999999999997E-002     2.0525074232067835E-010
  -4.2649999999999993E-002     2.8977957433396888E-010
  -4.1800000000000004E-002     3.3817392673586275E-010
  -4.0950000000000000E-002     3.2284162103540681E-010
  -4.0099999999999997E-002     2.2022316299785681E-010
  -3.9249999999999993E-002     1.7864064598657231E-011
  -3.8400000000000004E-002    -2.7823535602641503E-010
  -3.7550000000000000E-002    -6.3745692653304841E-010
  -3.6699999999999997E-002    -1.0014151857499434E-009
  -3.5850000000000007E-002    -1.2858472069876093E-009
  -3.5000000000000003E-002    -1.3893486211823519E-009
  -3.4150000000000000E-002    -1.2099773842138182E-009
  -3.3299999999999996E-002    -6.6924263601203719E-010
  -3.2450000000000007E-002     2.5915883697775632E-010
  -3.1600000000000003E-002     1.5209744012373668E-009
  -3.0750000000000000E-002     2.9607556273651901E-009
  -2.9899999999999996E-002     4.3174785284841209E-009
  -2.9050000000000006E-002     5.2442757121791318E-009
  -2.8200000000000003E-002     5.3569282392128434E-009
  -2.7349999999999999E-002     4.3100988904040650E-009
  -2.6499999999999996E-002     1.8926979901828754E-009
  -2.5650000000000006E-002    -1.8739976237816788E-009
  -2.4800000000000003E-002    -6.6581446975785336E-009
  -2.3949999999999999E-002    -1.1784154736571878E-008
  -2.3099999999999996E-002    -1.6266626012986493E-008
  -2.2250000000000006E-002    -1.8924193961004072E-008
  -2.1400000000000002E-002    -1.8571327115032269E-008
  -2.0549999999999999E-002    -1.4268192380354534E-008
  -1.9699999999999995E-002    -5.5909617004083100E-009
  -1.8850000000000006E-002     7.1285648986051724E-009
  -1.8000000000000002E-002     2.2650710193337886E-008
  -1.7149999999999999E-002     3.8814624046749972E-008
  -1.6299999999999995E-002     5.2699140883035519E-008
  -1.5450000000000005E-002     6.0967460263556664E-008
  -1.4600000000000002E-002     6.0374257298473686E-008
  -1.3749999999999998E-002     4.8379661657435278E-008
  -1.2899999999999995E-002     2.3787672224486477E-008
  -1.2050000000000005E-002    -1.2692600740551163E-008
  -1.1200000000000002E-002    -5.8069824236181757E-008
  -1.0349999999999998E-002    -1.0697631325334617E-007
  -9.5000000000000084E-003    -1.5193330253314967E-007
  -8.6500000000000049E-003    -1.8401779756755467E-007
  -7.8000000000000014E-003    -1.9392646909351878E-007
  -6.9499999999999978E-003    -1.7338305137090150E-007
  -6.1000000000000082E-003    -1.1677442455074962E-007
  -5.2500000000000047E-003    -2.2839863438101465E-008
  -4.4000000000000011E-003     1.0382814052643839E-007
  -3.5499999999999976E-003     2.5176435959536364E-007
  -2.7000000000000079E-003     4.0241383068774367E-007
  -1.8500000000000044E-003     5.3103015963584742E-007
  -1.0000000000000009E-003     6.0892706955179585E-007
  -1.4999999999999736E-004     6.0715952263092901E-007
   6.9999999999999230E-004     5.0146889893068891E-007
   1.5499999999999958E-003     2.7802065397291034E-007
   2.3999999999999994E-003    -6.0862097490143517E-008
   3.2500000000000029E-003    -4.9206392346787126E-007
   4.0999999999999925E-003    -9.6937794606131441E-007
   4.9499999999999961E-003    -1.4247201642214432E-006
   5.7999999999999996E-003    -1.7736946784697645E-006
   6.6499999999999893E-003    -1.9257353433730283E-006
   7.5000000000000067E-003    -1.7982548296696589E-006
   8.3499999999999963E-003    -1.3332855070434865E-006
   9.1999999999999860E-003    -5.1426939546472604E-007
   1.0050000000000003E-002     6.1993418845249889E-007
   1.0899999999999993E-002     1.9669900040877727E-006
   1.1750000000000010E-002     3.3617508514125400E-006
   1.2600000000000000E-002     4.5876274327802989E-006
   1.3449999999999990E-002     5.3992807427029822E-006
   1.4300000000000007E-002     5.5555999720669352E-006
   1.5149999999999997E-002     4.8600956187744399E-006
   1.5999999999999986E-002     3.2039525795823870E-006
   1.6850000000000004E-002     6.0553770010653962E-007
   1.7699999999999994E-002    -2.7608313195261003E-006
   1.8549999999999983E-002    -6.5541951969292780E-006
   1.9400000000000001E-002    -1.0280650248388147E-005
   2.0249999999999990E-002    -1.3335364185777887E-005
   2.1100000000000008E-002    -1.5073105349398699E-005
   2.1949999999999997E-002    -1.4902408004845256E-005
   2.2799999999999987E-002    -1.2393352827807005E-005
   2.3650000000000004E-002    -7.3837901080648324E-006
   2.4499999999999994E-002    -6.5444995230808110E-008
   2.5349999999999984E-002     8.9691753400267234E-006
   2.6200000000000001E-002     1.8735175436740367E-005
   2.7049999999999991E-002     2.7928063965391612E-005
   2.7900000000000008E-002     3.5060785520983200E-005
   2.8749999999999998E-002     3.8653360684357975E-005
   2.9599999999999987E-002     3.7453488849527890E-005
   3.0450000000000005E-002     3.0658434814982566E-005
   3.1299999999999994E-002     1.8105566489294916E-005
   3.2149999999999984E-002     4.0102592153881244E-007
   3.3000000000000002E-002    -2.1037492531947853E-005
   3.3849999999999991E-002    -4.4038013575596709E-005
   3.4700000000000009E-002    -6.5834695271844336E-005
   3.5549999999999998E-002    -8.3322471971658654E-005
   3.6399999999999988E-002    -9.3387792864990112E-005
   3.7250000000000005E-002    -9.3288777759300016E-005
   3.8099999999999995E-002    -8.1051366573122572E-005
   3.8949999999999985E-002    -5.5842097717767429E-005
   3.9800000000000002E-002    -1.8273207574607777E-005
   4.0649999999999992E-002     2.9405922720221018E-005
   4.1500000000000009E-002     8.3274055344904403E-005
   4.2349999999999999E-002     1.3789370588111370E-004
   4.3199999999999988E-002     1.8667438546542619E-004
   4.4050000000000006E-002     2.2243881106031747E-004
   4.4899999999999995E-002     2.3815982470209253E-004
   4.5749999999999985E-002     2.2781279348124055E-004
   4.6600000000000003E-002     1.8726572666635672E-004
   4.7449999999999992E-002     1.1511852994950815E-004
   4.8299999999999982E-002     1.3398998102643682E-005
   4.9149999999999999E-002    -1.1197396357747862E-004
   4.9999999999999989E-002    -2.5104444341123879E-004
   5.0850000000000006E-002    -3.9007381641386582E-004
   5.1699999999999996E-002    -5.1226822017332637E-004
   5.2549999999999986E-002    -5.9903666073936324E-004
   5.3400000000000003E-002    -6.3179545476293238E-004
   5.4249999999999993E-002    -5.9426963437556588E-004
   5.5099999999999982E-002    -4.7514144674954480E-004
   5.5950000000000000E-002    -2.7077380541649671E-004
   5.6799999999999989E-002     1.2390120626136990E-005
   5.7650000000000007E-002     3.5623579850334910E-004
   5.8499999999999996E-002     7.3068000860554232E-004
   5.9349999999999986E-002     1.0950633128679215E-003
   6.0200000000000004E-002     1.4014090283450500E-003
   6.1049999999999993E-002     1.5994316893229903E-003
   6.1899999999999983E-002     1.6428446630359626E-003
   6.2750000000000000E-002     1.4962082208555714E-003
   6.3599999999999990E-002     1.1413748217862180E-003
   6.4450000000000007E-002     5.8255518591216339E-004
   6.5299999999999997E-002    -1.5081561973617519E-004
   6.6149999999999987E-002    -1.0039502538942728E-003
   6.7000000000000004E-002    -1.8995066197642950E-003
   6.7849999999999994E-002    -2.7431456172622363E-003
   6.8699999999999983E-002    -3.4314140821411344E-003
   6.9550000000000001E-002    -3.8613369785390813E-003
   7.0399999999999990E-002    -3.9410789220634089E-003
   7.1249999999999980E-002    -3.6009673105246512E-003
   7.2099999999999997E-002    -2.8041197590497500E-003
   7.2949999999999987E-002    -1.5557954512463333E-003
   7.3800000000000004E-002     8.9613396706834697E-005
   7.4649999999999994E-002     2.0251891672140292E-003
   7.5499999999999984E-002     4.0930681746057605E-003
   7.6350000000000001E-002     6.0920871829202670E-003
   7.7199999999999991E-002     7.7921634082128710E-003
   7.8049999999999981E-002     8.9550872629330543E-003
   7.8899999999999998E-002     9.3603361326050870E-003
   7.9749999999999988E-002     8.8334603826353657E-003
   8.0600000000000005E-002     7.2736893488696743E-003
   8.1449999999999995E-002     4.6770622846080915E-003
   8.2299999999999984E-002     1.1514292914583772E-003
   8.3150000000000002E-002    -3.0793733751583092E-003
   8.3999999999999991E-002    -7.6836670501317216E-003
   8.4849999999999981E-002    -1.2242511381908025E-002
   8.5699999999999998E-002    -1.6281390968393619E-002
   8.6549999999999988E-002    -1.9310806879621452E-002
   8.7400000000000005E-002    -2.0872636193573203E-002
   8.8249999999999995E-002    -2.0588866900219469E-002
   8.9099999999999985E-002    -1.8208829600584519E-002
   8.9950000000000002E-002    -1.3651083823226107E-002
   9.0799999999999992E-002    -7.0356814618114209E-003
   9.1649999999999981E-002     1.2974976825465201E-003
   9.2499999999999999E-002     1.0788714148408457E-002
   9.3349999999999989E-002     2.0679957816271338E-002
   9.4200000000000006E-002     3.0060267166475196E-002
   9.5049999999999996E-002     3.7934268992311067E-002
   9.5899999999999985E-002     4.3310363886762286E-002
   9.6750000000000003E-002     4.5302005066003459E-002
   9.7599999999999992E-002     4.3232485730582942E-002
   9.8449999999999982E-002     3.6731827123082456E-002
   9.9299999999999999E-002     2.5814102477431225E-002
  0.10014999999999999          1.0924404092349817E-002
  0.10099999999999998         -7.0522615062222418E-003
  0.10185000000000000         -2.6824663946493257E-002
  0.10269999999999999         -4.6771721091654075E-002
  0.10355000000000000         -6.5058064424775935E-002
  0.10439999999999999         -7.9781417961539189E-002
  0.10524999999999998         -8.9141607542089538E-002
  0.10610000000000000         -9.1617988119189406E-002
  0.10694999999999999         -8.6140749209302023E-002
  0.10779999999999998         -7.2240279052460457E-002
  0.10865000000000000         -5.0158493419220740E-002
  0.10949999999999999         -2.0907591700355294E-002
  0.11035000000000000          1.3736584713650107E-002
  0.11119999999999999          5.1313046145330346E-002
  0.11204999999999998          8.8827608161645991E-002
  0.11290000000000000         0.12297029771322844
  0.11374999999999999         0.15038419524592264
  0.11459999999999998         0.16796379592064514
  0.11545000000000000         0.17315675006005737
  0.11629999999999999         0.16424094906321118
  0.11715000000000000         0.14054935454682854
  0.11799999999999999         0.10261885059194291
  0.11884999999999998          5.2246384195977873E-002
  0.11970000000000000         -7.5589550512834142E-003
  0.12054999999999999         -7.2730148722510476E-002
  0.12139999999999998        -0.13839750478853249
  0.12225000000000000        -0.19923051318558352
  0.12309999999999999        -0.24984589721182138
  0.12395000000000000        -0.28525249513923839
  0.12479999999999999        -0.30129735549768721
  0.12564999999999998        -0.29507555541518715
  0.12650000000000000        -0.26526401157554513
  0.12734999999999999        -0.21234229893770931
  0.12819999999999998        -0.13867447496503674
  0.12905000000000000         -4.8435590626833835E-002
  0.12989999999999999          5.2618663403607227E-002
  0.13074999999999998         0.15752322891456927
  0.13159999999999999         0.25859163974445193
  0.13245000000000001         0.34797767893285181
  0.13329999999999997         0.41827094287803296
  0.13414999999999999         0.46307698533417735
  0.13500000000000001         0.47754003499539188
  0.13584999999999997         0.45876747447613320
  0.13669999999999999         0.40612636716280387
  0.13755000000000001         0.32138747636248410
  0.13839999999999997         0.20870082662051737
  0.13924999999999998          7.4398145827022422E-002
  0.14010000000000000         -7.3371746337494714E-002
  0.14094999999999996        -0.22515355738169524
  0.14179999999999998        -0.37080922394325189
  0.14265000000000000        -0.50021253043448888
  0.14350000000000002        -0.60396251472879037
  0.14434999999999998        -0.67406239632017872
  0.14520000000000000        -0.70451012256109213
  0.14605000000000001        -0.69175400205194659
  0.14689999999999998        -0.63498246902689859
  0.14774999999999999        -0.53623100645866517
  0.14860000000000001        -0.40030093514696063
  0.14944999999999997        -0.23449149759137347
  0.15029999999999999         -4.8169288186490813E-002
  0.15115000000000001         0.14780477934796560
  0.15199999999999997         0.34175057308793066
  0.15284999999999999         0.52189986105537245
  0.15370000000000000         0.67714459964470719
  0.15454999999999997         0.79775492386936708
  0.15539999999999998         0.87601499909524494
  0.15625000000000000         0.90671205970252855
  0.15709999999999996         0.88742238895004355
  0.15794999999999998         0.81857449450126341
  0.15880000000000000         0.70330376514159632
  0.15965000000000001         0.54711159621684291
  0.16049999999999998         0.35733660748631502
  0.16134999999999999         0.14245789036719103
  0.16220000000000001         -8.8705622055226030E-002
  0.16304999999999997        -0.32782096795885196
  0.16389999999999999        -0.56780001767857324
  0.16475000000000001        -0.80347602868365686
  0.16559999999999997         -1.0321631257176080
  0.16644999999999999         -1.2540804610632876
  0.16730000000000000         -1.4726164092177916
  0.16814999999999997         -1.6944054241536533
  0.16899999999999998         -1.9291981684049690
  0.16985000000000000         -2.1895061313818820
  0.17069999999999996         -2.4900940146845230
  0.17154999999999998         -2.8474240618716635
  0.17240000000000000         -3.2791537369567871
  0.17325000000000002         -3.8036852546631987
  0.17409999999999998         -4.4398564099172102
  0.17494999999999999         -5.2068524052265239
  0.17580000000000001         -6.1244189963448736
  0.17664999999999997         -7.2134914096680269
  0.17749999999999999         -8.4970590971329756
  0.17835000000000001         -10.001318933734606
  0.17919999999999997         -11.756919284870488
  0.18004999999999999         -13.800533114653842
  0.18090000000000001         -16.176242246231130
  0.18174999999999997         -18.936888282693161
  0.18259999999999998         -22.145226617380072
  0.18345000000000000         -25.875056923520340
  0.18429999999999996         -30.212214835262031
  0.18514999999999998         -35.255037579447709
  0.18600000000000000         -41.114369574901623
  0.18684999999999996         -47.914299036403030
  0.18769999999999998         -55.792639103797143
  0.18855000000000000         -64.902221562793301
  0.18940000000000001         -75.410705090142002
  0.19024999999999997         -87.500309144918916
  0.19109999999999999         -101.36911929511689
  0.19195000000000001         -117.23272801578781
  0.19279999999999997         -135.32855543857070
  0.19364999999999999         -155.91707755317364
  0.19450000000000001         -179.28275776008556
  0.19534999999999997         -205.73480953375656
  0.19619999999999999         -235.61026433416697
  0.19705000000000000         -269.27738827195697
  0.19789999999999996         -307.13652414111391
  0.19874999999999998         -349.62111974768720
  0.19960000000000000         -397.19896685005961
  0.20044999999999996         -450.37171532377567
  0.20129999999999998         -509.67551379575866
  0.20215000000000000         -575.67959152383401
  0.20300000000000001         -648.98169796336333
  0.20384999999999998         -730.20728342604593
  0.20469999999999999         -820.00571209230156
  0.20555000000000001         -919.04831150690870
  0.20639999999999997         -1028.0280635166209
  0.20724999999999999         -1147.6437358603632
  0.20810000000000001         -1278.5976727946188
  0.20894999999999997         -1421.5901651415063
  0.20979999999999999         -1577.3200958241689
  0.21065000000000000         -1746.4669752601487
  0.21149999999999997         -1929.6870180507926
  0.21234999999999998         -2127.6008130380296
  0.21320000000000000         -2340.7712629211824
  0.21404999999999996         -2569.7159430664606
  0.21489999999999998         -2814.8521304292326
  0.21575000000000000         -3076.5154998961521
  0.21659999999999996         -3354.9222687810952
  0.21744999999999998         -3650.1688976272899
  0.21829999999999999         -3962.2019602421151
  0.21915000000000001         -4290.7738348340863
  0.21999999999999997         -4635.4328110991137
  0.22084999999999999         -4995.5461572150252
  0.22170000000000001         -5370.2257595599758
  0.22254999999999997         -5758.3374646965840
  0.22339999999999999         -6158.4363859202895
  0.22425000000000000         -6568.7872457148314
  0.22509999999999997         -6987.3512326892878
  0.22594999999999998         -7411.7137029589057
  0.22680000000000000         -7839.1284703871961
  0.22764999999999996         -8266.4875666328026
  0.22849999999999998         -8690.3160308715214
  0.22935000000000000         -9106.7282708519124
  0.23019999999999996         -9511.4354597133115
  0.23104999999999998         -9899.7502760758507
  0.23190000000000000         -10266.683346344349
  0.23275000000000001         -10606.884175366804
  0.23359999999999997         -10914.575517735833
  0.23444999999999999         -11183.609793941503
  0.23530000000000001         -11407.555140235243
  0.23614999999999997         -11579.845890743054
  0.23699999999999999         -11693.716018645890
  0.23785000000000001         -11742.281960250000
  0.23869999999999997         -11718.480795003501
  0.23954999999999999         -11615.210575897121
  0.24040000000000000         -11425.489922139253
  0.24124999999999996         -11142.567474979103
  0.24209999999999998         -10759.942019615910
  0.24295000000000000         -10271.427713317298
  0.24379999999999996         -9671.2424834405156
  0.24464999999999998         -8954.1604402589855
  0.24550000000000000         -8115.7027598750474
  0.24634999999999996         -7152.1502511527251
  0.24719999999999998         -6060.6522444470147
  0.24804999999999999         -4839.3863639899337
  0.24890000000000001         -3487.5550537292002
  0.24974999999999997         -2005.6671114878768
  0.25059999999999999         -395.34644376312281
  0.25145000000000001          1340.3417085693745
  0.25229999999999997          3196.9616600573499
  0.25314999999999999          5168.4922214896833
  0.25400000000000000          7247.3363156385185
  0.25484999999999997          9424.3550426544771
  0.25569999999999998          11688.762843750306
  0.25655000000000000          14028.267889865263
  0.25739999999999996          16428.986966558761
  0.25824999999999998          18875.584384942656
  0.25910000000000000          21351.123496013737
  0.25994999999999996          23837.379569974521
  0.26079999999999998          26314.987594938819
  0.26164999999999999          28763.653408566435
  0.26249999999999996          31162.251523501149
  0.26334999999999997          33488.751426965180
  0.26419999999999999          35720.664849968831
  0.26505000000000001          37835.147902079640
  0.26589999999999997          39809.461469358612
  0.26674999999999999          41620.975737067180
  0.26760000000000000          43247.516144136403
  0.26844999999999997          44667.608860693370
  0.26929999999999998          45860.899548518326
  0.27015000000000000          46808.179218184276
  0.27099999999999996          47491.885594399348
  0.27184999999999998          47895.992161420312
  0.27270000000000000          48006.783586786405
  0.27354999999999996          47812.713524341278
  0.27439999999999998          47304.575671707549
  0.27524999999999999          46475.909334148382
  0.27609999999999996          45322.985026702692
  0.27694999999999997          43845.032822612826
  0.27779999999999999          42044.289288363296
  0.27865000000000001          39926.245503101614
  0.27949999999999997          37499.394057317084
  0.28034999999999999          34775.432206230107
  0.28120000000000001          31769.109705817245
  0.28204999999999997          28498.217460845590
  0.28289999999999998          24982.963802118084
  0.28375000000000000          21246.762797704214
  0.28459999999999996          17315.651049163287
  0.28544999999999998          13217.345499846324
  0.28630000000000000          8981.8345740024179
  0.28714999999999996          4640.4215040694307
  0.28799999999999998          226.24822529369976
  0.28885000000000000         -4226.7759298127985
  0.28969999999999996         -8684.0882211519965
  0.29054999999999997         -13110.824743202056
  0.29139999999999999         -17472.392973965132
  0.29224999999999995         -21734.159885853962
  0.29309999999999997         -25862.532061949751
  0.29394999999999999         -29824.985886136037
  0.29480000000000001         -33590.845590512152
  0.29564999999999997         -37131.068493857645
  0.29649999999999999         -40418.716515522676
  0.29735000000000000         -43429.380647304417
  0.29819999999999997         -46141.443699726922
  0.29904999999999998         -48536.133232266569
  0.29990000000000000         -50597.753307120453
  0.30074999999999996         -52313.824550850957
  0.30159999999999998         -53674.965240126956
  0.30245000000000000         -54675.359822542829
  0.30329999999999996         -55312.319526673746
  0.30414999999999998         -55586.751517380544
  0.30499999999999999         -55503.186021649017
  0.30584999999999996         -55069.433518298858
  0.30669999999999997         -54296.208570438779
  0.30754999999999999         -53196.985140026765
  0.30840000000000001         -51787.629417582808
  0.30924999999999997         -50086.524036897899
  0.31009999999999999         -48114.675125978123
  0.31095000000000000         -45894.914090482212
  0.31179999999999997         -43451.623545649731
  0.31264999999999998         -40810.237695406235
  0.31350000000000000         -37997.186063967587
  0.31434999999999996         -35039.781987260496
  0.31519999999999998         -31966.266366512205
  0.31605000000000000         -28804.902381242362
  0.31689999999999996         -25583.773132397415
  0.31774999999999998         -22329.764719293835
  0.31859999999999999         -19068.970043399178
  0.31944999999999996         -15826.613197299386
  0.32029999999999997         -12627.059883302489
  0.32114999999999999         -9493.4124031044521
  0.32199999999999995         -6447.1885221201974
  0.32284999999999997         -3507.4803642324150
  0.32369999999999999         -691.66141361277050
  0.32455000000000001          1984.8202621645451
  0.32539999999999997          4507.7498351439353
  0.32624999999999998          6865.0434321869416
  0.32710000000000000          9047.1330777018229
  0.32794999999999996          11047.279909608744
  0.32879999999999998          12860.993371841510
  0.32965000000000000          14484.972700606892
  0.33049999999999996          15917.386533101557
  0.33134999999999998          17158.340634440574
  0.33220000000000000          18210.144749609790
  0.33304999999999996          19076.705278254805
  0.33389999999999997          19763.562817844788
  0.33474999999999999          20277.014893091975
  0.33559999999999995          20623.936174955845
  0.33644999999999997          20812.659263232399
  0.33729999999999999          20852.872110585889
  0.33815000000000001          20755.237338221319
  0.33899999999999997          20530.755312971236
  0.33984999999999999          20190.401233400342
  0.34070000000000000          19745.005815837907
  0.34154999999999996          19205.877692376551
  0.34239999999999998          18584.642151553388
  0.34325000000000000          17892.788958491084
  0.34409999999999996          17141.185340605298
  0.34494999999999998          16340.335920025649
  0.34580000000000000          15500.378770738389
  0.34664999999999996          14631.218913050749
  0.34749999999999998          13742.014293195940
  0.34834999999999999          12841.223030956080
  0.34919999999999995          11936.620240770813
  0.35004999999999997          11035.812805845111
  0.35089999999999999          10145.737726451614
  0.35174999999999995          9272.4395454926325
  0.35259999999999997          8420.7745074012801
  0.35344999999999999          7595.1250521129314
  0.35430000000000000          6799.6833930963285
  0.35514999999999997          6037.9806613921301
  0.35599999999999998          5312.6065702071364
  0.35685000000000000          4625.1729547073228
  0.35769999999999996          3976.9114975589605
  0.35854999999999998          3368.9075808808125
  0.35940000000000000          2802.0165109211421
  0.36024999999999996          2276.5812633496816
  0.36109999999999998          1792.4937973280303
  0.36194999999999999          1349.2192182937101
  0.36279999999999996          945.83333389624624
  0.36364999999999997          580.89672769958361
  0.36449999999999999          252.95070742924918
  0.36534999999999995         -39.527256009407495
  0.36619999999999997         -297.87094419551602