 -0.12000000000000000          0.0000000000000000
 -0.11914999999999999          0.0000000000000000
 -0.11830000000000000          0.0000000000000000
 -0.11745000000000000          0.0000000000000000
 -0.11660000000000000          0.0000000000000000
 -0.11574999999999999          0.0000000000000000
 -0.11490000000000000          0.0000000000000000
 -0.11405000000000000          0.0000000000000000
 -0.11320000000000000          0.0000000000000000
 -0.11234999999999999          0.0000000000000000
 -0.11150000000000000          0.0000000000000000
 -0.11065000000000000          0.0000000000000000
 -0.10979999999999999          3.5991040653256544E-036
 -0.10894999999999999          5.5087840024794814E-035
 -0.10810000000000000          3.6963970993935018E-034
 -0.10725000000000000          1.1014356149716413E-033
 -0.10639999999999999         -2.4039711203545145E-033
 -0.10554999999999999         -4.6586702100604596E-032
 -0.10470000000000000         -2.9671749792672701E-031
 -0.10385000000000000         -1.2894336428757631E-030
 -0.10299999999999999         -4.3128541459711409E-030
 -0.10214999999999999         -1.1449659499789535E-029
 -0.10130000000000000         -2.3578172864972760E-029
 -0.10045000000000000         -3.2627823176069390E-029
  -9.9599999999999994E-002    -3.1898976067901816E-030
  -9.8750000000000004E-002     1.5699483179668853E-028
  -9.7900000000000001E-002     6.1957732387530846E-028
  -9.7049999999999997E-002     1.5923565237769068E-027
  -9.6199999999999994E-002     3.0943833811525157E-027
  -9.5349999999999990E-002     4.4025463655190073E-027
  -9.4500000000000001E-002     3.1180723336274466E-027
  -9.3649999999999997E-002    -5.8283214249916521E-027
  -9.2799999999999994E-002    -3.0156025896242010E-026
  -9.1950000000000004E-002    -7.7093806029691981E-026
  -9.1100000000000000E-002    -1.4433588713334366E-025
  -9.0249999999999997E-002    -2.0330876617331863E-025
  -8.9399999999999993E-002    -1.7747412633054815E-025
  -8.8549999999999990E-002     7.2189369026015994E-026
  -8.7700000000000000E-002     7.2906429683077255E-025
  -8.6849999999999997E-002     1.9333959555535907E-024
  -8.5999999999999993E-002     3.5920776891395578E-024
  -8.5150000000000003E-002     5.0882179871299453E-024
  -8.4300000000000000E-002     4.9765787424784678E-024
  -8.3449999999999996E-002     8.8004352836356572E-025
  -8.2600000000000007E-002    -1.0062525664539061E-023
  -8.1749999999999989E-002    -2.9796781247117689E-023
  -8.0900000000000000E-002    -5.6774514246943593E-023
  -8.0049999999999996E-002    -8.2504390001632685E-023
  -7.9199999999999993E-002    -8.8484881363831687E-023
  -7.8350000000000003E-002    -4.5956612407899909E-023
  -7.7499999999999999E-002     7.8171674078210878E-023
  -7.6649999999999996E-002     3.0606925928915021E-022
  -7.5800000000000006E-002     6.2357808128873833E-022
  -7.4949999999999989E-002     9.4899796537442561E-022
  -7.4099999999999999E-002     1.1081129415123083E-021
  -7.3249999999999996E-002     8.3572316965683349E-022
  -7.2399999999999992E-002    -1.7147641442196533E-022
  -7.1550000000000002E-002    -2.1306798236657941E-021
  -7.0699999999999999E-002    -4.9773099418268763E-021
  -6.9849999999999995E-002    -8.1350284100773420E-021
  -6.9000000000000006E-002    -1.0338228157374606E-020
  -6.8149999999999988E-002    -9.6407582698290716E-021
  -6.7299999999999999E-002    -3.7631064592092495E-021
  -6.6449999999999995E-002     9.1109984442761760E-021
  -6.5599999999999992E-002     2.9104315303681506E-020
  -6.4750000000000002E-002     5.3213312762088802E-020
  -6.3899999999999998E-002     7.4172256556015080E-020
  -6.3049999999999995E-002     8.0348327504978577E-020
  -6.2199999999999998E-002     5.7473719094227905E-020
  -6.1350000000000002E-002    -7.2149105766396969E-021
  -6.0499999999999998E-002    -1.1850458421570269E-019
  -5.9650000000000002E-002    -2.6552154724552788E-019
  -5.8799999999999998E-002    -4.1520949532477275E-019
  -5.7950000000000002E-002    -5.1041598894428340E-019
  -5.7099999999999998E-002    -4.7635651964534967E-019
  -5.6249999999999994E-002    -2.3822149661749806E-019
  -5.5400000000000005E-002     2.5002824225612448E-019
  -5.4550000000000001E-002     9.6998401288289317E-019
  -5.3699999999999998E-002     1.8057335501257609E-018
  -5.2849999999999994E-002     2.5274366544351261E-018
  -5.2000000000000005E-002     2.8072430109627039E-018
  -5.1150000000000001E-002     2.2800060182520835E-018
  -5.0299999999999997E-002     6.5163226437100518E-019
  -4.9449999999999994E-002    -2.1578278768673218E-018
  -4.8600000000000004E-002    -5.8684184182845248E-018
  -4.7750000000000001E-002    -9.7413921900015391E-018
  -4.6899999999999997E-002    -1.2585428266840071E-017
  -4.6049999999999994E-002    -1.2918767684639935E-017
  -4.5200000000000004E-002    -9.3097239024789716E-018
  -4.4350000000000001E-002    -8.6852722826580260E-019
  -4.3499999999999997E-002     1.2199497574171178E-017
  -4.2649999999999993E-002     2.8130989074253301E-017
  -4.1800000000000004E-002     4.3422236987656020E-017
  -4.0950000000000000E-002     5.3111762324947061E-017
  -4.0099999999999997E-002     5.1643517772728475E-017
  -3.9249999999999993E-002     3.4293167308944195E-017
  -3.8400000000000004E-002    -1.0434942530047088E-018
  -3.7550000000000000E-002    -5.2094486012483823E-017
  -3.6699999999999997E-002    -1.1103091783833040E-016
  -3.5850000000000007E-002    -1.6444495595372471E-016
  -3.5000000000000003E-002    -1.9494821272788431E-016
  -3.4150000000000000E-002    -1.8454835658064366E-016
  -3.3299999999999996E-002    -1.1949901915396591E-016
  -3.2450000000000007E-002     4.2195401279779865E-018
  -3.1600000000000003E-002     1.7611448838666794E-016
  -3.0750000000000000E-002     3.6868078862125126E-016
  -2.9899999999999996E-002     5.3868360674350522E-016
  -2.9050000000000006E-002     6.3316809453274185E-016
  -2.8200000000000003E-002     6.0014975206562937E-016
  -2.7349999999999999E-002     4.0264433624294776E-016
  -2.6499999999999996E-002     3.3365524608012118E-017
  -2.5650000000000006E-002    -4.7358784892865487E-016
  -2.4800000000000003E-002    -1.0380587589685113E-015
  -2.3949999999999999E-002    -1.5395207722557445E-015
  -2.3099999999999996E-002    -1.8347614252000685E-015
  -2.2250000000000006E-002    -1.7865535798852152E-015
  -2.1400000000000002E-002    -1.2992248150917545E-015
  -2.0549999999999999E-002    -3.5415900662580343E-016
  -1.9699999999999995E-002     9.6359101478207299E-016
  -1.8850000000000006E-002     2.4564964603945597E-015
  -1.8000000000000002E-002     3.8303780685725429E-015
  -1.7149999999999999E-002     4.7373775602604197E-015
  -1.6299999999999995E-002     4.8426388557877379E-015
  -1.5450000000000005E-002     3.9047338777606163E-015
  -1.4600000000000002E-002     1.8542830004177804E-015
  -1.3749999999999998E-002    -1.1479194043135205E-015
  -1.2899999999999995E-002    -4.6913339863321318E-015
  -1.2050000000000005E-002    -8.1477244857885223E-015
  -1.1200000000000002E-002    -1.0758786544044391E-014
  -1.0349999999999998E-002    -1.1771525205867546E-014
  -9.5000000000000084E-003    -1.0601176009914945E-014
  -8.6500000000000049E-003    -6.9914112242410475E-015
  -7.8000000000000014E-003    -1.1364284770398516E-015
  -6.9499999999999978E-003     6.2685231044241944E-015
  -6.1000000000000082E-003     1.4072098941248788E-014
  -5.2500000000000047E-003     2.0814609289409932E-014
  -4.4000000000000011E-003     2.4965184179239477E-014
  -3.5499999999999976E-003     2.5213942727082094E-014
  -2.7000000000000079E-003     2.0767958903078225E-014
  -1.8500000000000044E-003     1.1591547613810930E-014
  -1.0000000000000009E-003    -1.4653713748457116E-015
  -1.4999999999999736E-004    -1.6691666256835298E-014
   6.9999999999999230E-004    -3.1707409438777490E-014
   1.5499999999999958E-003    -4.3807585862737796E-014
   2.3999999999999994E-003    -5.0408829981879201E-014
   3.2500000000000029E-003    -4.9525836288348853E-014
   4.0999999999999925E-003    -4.0191646525214873E-014
   4.9499999999999961E-003    -2.2739669806988231E-014
   5.7999999999999996E-003     1.1145716086354377E-015
   6.6499999999999893E-003     2.8420255142515436E-014
   7.5000000000000067E-003     5.5354363020027805E-014
   8.3499999999999963E-003     7.7749279240423253E-014
   9.1999999999999860E-003     9.1702212928617039E-014
   1.0050000000000003E-002     9.4169182710360814E-014
   1.0899999999999993E-002     8.3450214884066824E-014
   1.1750000000000010E-002     5.9493922304199717E-014
   1.2600000000000000E-002     2.3983672347995769E-014
   1.3449999999999990E-002    -1.9793851576835501E-014
   1.4300000000000007E-002    -6.7263527369961891E-014
   1.5149999999999997E-002    -1.1300393127913955E-013
   1.5999999999999986E-002    -1.5125613442514080E-013
   1.6850000000000004E-002    -1.7644893285831604E-013
   1.7699999999999994E-002    -1.8371201707347149E-013
   1.8549999999999983E-002    -1.6936944214134974E-013
   1.9400000000000001E-002    -1.3142073064753860E-013
   2.0249999999999990E-002    -7.0011593296063795E-014
   2.1100000000000008E-002     1.2125934155172150E-014
   2.1949999999999997E-002     1.0932494977546446E-013
   2.2799999999999987E-002     2.1283051931622983E-013
   2.3650000000000004E-002     3.1097997503804555E-013
   2.4499999999999994E-002     3.8985836387614710E-013
   2.5349999999999984E-002     4.3453242550591026E-013
   2.6200000000000001E-002     4.3088111667546729E-013
   2.7049999999999991E-002     3.6791279565925886E-013
   2.7900000000000008E-002     2.4031070422926387E-013
   2.8749999999999998E-002     5.0810758968271588E-014
   2.9599999999999987E-002    -1.8807915578657487E-013
   3.0450000000000005E-002    -4.5352104427788569E-013
   3.1299999999999994E-002    -7.1336670177223470E-013
   3.2149999999999984E-002    -9.2897268450399016E-013
   3.3000000000000002E-002    -1.0597461671478641E-012
   3.3849999999999991E-002    -1.0690227057371173E-012
   3.4700000000000009E-002    -9.3055169038065252E-013
   3.5549999999999998E-002    -6.3461809934099281E-013
   3.6399999999999988E-002    -1.9271424583812650E-013
   3.7250000000000005E-002     3.6026293205212341E-013
   3.8099999999999995E-002     9.6705904661293730E-013
   3.8949999999999985E-002     1.5527028240216902E-012
   3.9800000000000002E-002     2.0325479257783041E-012
   4.0649999999999992E-002     2.3229600775163166E-012
   4.1500000000000009E-002     2.3533696730174318E-012
   4.2349999999999999E-002     2.0780735910394040E-012
   4.3199999999999988E-002     1.4860130644283373E-012
   4.4050000000000006E-002     6.0690360816847875E-013
   4.4899999999999995E-002    -4.8753617353701938E-013
   4.5749999999999985E-002    -1.6878990095392770E-012
   4.6600000000000003E-002    -2.8568654157541918E-012
   4.7449999999999992E-002    -3.8436094147624841E-012
   4.8299999999999982E-002    -4.5013137660514160E-012
   4.9149999999999999E-002    -4.7058072331783546E-012
   4.9999999999999989E-002    -4.3730689008788029E-012
   5.0850000000000006E-002    -3.4734104986229084E-012
   5.1699999999999996E-002    -2.0404506718851890E-012
   5.2549999999999986E-002    -1.7353754716627176E-013
   5.3400000000000003E-002     1.9670330550035066E-012
   5.4249999999999993E-002     4.1718930353898926E-012
   5.5099999999999982E-002     6.2007212549273515E-012
   5.5950000000000000E-002     7.8051540893743990E-012
   5.6799999999999989E-002     8.7544926877163188E-012
   5.7650000000000007E-002     8.8619329569968074E-012
   5.8499999999999996E-002     8.0088625974135914E-012
   5.9349999999999986E-002     6.1648297611117021E-012
   6.0200000000000004E-002     3.4008779199116299E-012
   6.1049999999999993E-002    -1.0563361500568971E-013
   6.1899999999999983E-002    -4.0762247605578430E-012
   6.2750000000000000E-002    -8.1473086074089044E-012
   6.3599999999999990E-002    -1.1896983371516492E-011
   6.4450000000000007E-002    -1.4881525198889561E-011
   6.5299999999999997E-002    -1.6679396159971878E-011
   6.6149999999999987E-002    -1.6939288716643493E-011
   6.7000000000000004E-002    -1.5427627333043112E-011
   6.7849999999999994E-002    -1.2070232893934829E-011
   6.8699999999999983E-002    -6.9823527718060190E-012
   6.9550000000000001E-002    -4.8183059651834038E-013
   7.0399999999999990E-002     6.9188017721547323E-012
   7.1249999999999980E-002     1.4543444148227152E-011
   7.2099999999999997E-002     2.1606461084060656E-011
   7.2949999999999987E-002     2.7286169249942121E-011
   7.3800000000000004E-002     3.0811550410932547E-011
   7.4649999999999994E-002     3.1553426640015868E-011
   7.5499999999999984E-002     2.9109764613283128E-011
   7.6350000000000001E-002     2.3374428912870213E-011
   7.7199999999999991E-002     1.4579700389381338E-011
   7.8049999999999981E-002     3.3052481719086900E-012
   7.8899999999999998E-002    -9.5503314710730604E-012
   7.9749999999999988E-002    -2.2835261754190299E-011
   8.0600000000000005E-002    -3.5243025258405111E-011
   8.1449999999999995E-002    -4.5435167209188324E-011
   8.2299999999999984E-002    -5.2176702327318784E-011
   8.3150000000000002E-002    -5.4470862499661416E-011
   8.3999999999999991E-002    -5.1678947103127724E-011
   8.4849999999999981E-002    -4.3612201007473586E-011
   8.5699999999999998E-002    -3.0584797111028282E-011
   8.6549999999999988E-002    -1.3420266485529150E-011
   8.7400000000000005E-002     6.5918694820209515E-012
   8.8249999999999995E-002     2.7787910923860585E-011
   8.9099999999999985E-002     4.8264144367082863E-011
   8.9950000000000002E-002     6.6042640789102785E-011
   9.0799999999999992E-002     7.9254458080385915E-011
   9.1649999999999981E-002     8.6323337725223816E-011
   9.2499999999999999E-002     8.6132251341900674E-011
   9.3349999999999989E-002     7.8155654642099962E-011
   9.4200000000000006E-002     6.2543475273231438E-011
   9.5049999999999996E-002     4.0146156686667296E-011
   9.5899999999999985E-002     1.2476622968405579E-011
   9.6750000000000003E-002    -1.8389942017962798E-011
   9.7599999999999992E-002    -4.9971107418387956E-011
   9.8449999999999982E-002    -7.9574518316219477E-011
   9.9299999999999999E-002    -1.0452122234747181E-010
  0.10014999999999999         -1.2237619323097828E-010
  0.10099999999999998         -1.3116697187138914E-010
  0.10185000000000000         -1.2957240708741784E-010
  0.10269999999999999         -1.1706498957744045E-010
  0.10355000000000000         -9.3994883743740459E-011
  0.10439999999999999         -6.1606525663819122E-011
  0.10524999999999998         -2.1983972834596587E-011
  0.10610000000000000          2.2074546550598168E-011
  0.10694999999999999          6.7246835389465948E-011
  0.10779999999999998          1.0993072335650462E-010
  0.10865000000000000          1.4652490712568870E-010
  0.10949999999999999          1.7372629057905793E-010
  0.11035000000000000          1.8881845222334653E-010
  0.11119999999999999          1.8992606824472210E-010
  0.11204999999999998          1.7620973193963172E-010
  0.11290000000000000          1.4798120518662607E-010
  0.11374999999999999          1.0672405868925715E-010
  0.11459999999999998          5.5015687133208726E-011
  0.11545000000000000         -3.6457180392525910E-012
  0.11629999999999999         -6.5093819844095518E-011
  0.11715000000000000         -1.2480524455914605E-010
  0.11799999999999999         -1.7824137744968067E-010
  0.11884999999999998         -2.2119199356200064E-010
  0.11970000000000000         -2.5009314569511731E-010
  0.12054999999999999         -2.6229616148329936E-010
  0.12139999999999998         -2.5626963722808399E-010
  0.12225000000000000         -2.3172399546999277E-010
  0.12309999999999999         -1.8965238570226312E-010
  0.12395000000000000         -1.3228869507349039E-010
  0.12479999999999999         -6.2986317420801312E-011
  0.12564999999999998          1.3975273842136600E-011
  0.12650000000000000          9.3646017816715281E-011
  0.12734999999999999          1.7070918524788740E-010
  0.12819999999999998          2.3981920673382891E-010
  0.12905000000000000          2.9595288676327302E-010
  0.12989999999999999          3.3475267588321221E-010
  0.13074999999999998          3.5284057262020791E-010
  0.13159999999999999          3.4807919675377751E-010
  0.13245000000000001          3.1976071300948945E-010
  0.13329999999999997          2.6870952487125321E-010
  0.13414999999999999          1.9728811860811437E-010
  0.13500000000000001          1.0930584585863932E-010
  0.13584999999999997          9.8316726696122417E-012
  0.13669999999999999         -9.5077452540699544E-011
  0.13755000000000001         -1.9872165116988859E-010
  0.13839999999999997         -2.9415906737158324E-010
  0.13924999999999998         -3.7464408215561235E-010
  0.14010000000000000         -4.3408151492149290E-010
  0.14094999999999996         -4.6747066626186734E-010
  0.14179999999999998         -4.7131249136416696E-010
  0.14265000000000000         -4.4394740136039685E-010
  0.14350000000000002         -3.8579061874500772E-010
  0.14434999999999998         -2.9943663175187071E-010
  0.14520000000000000         -1.8960559014538434E-010
  0.14605000000000001         -6.2920370610547834E-011
  0.14689999999999998          7.2486107794904653E-011
  0.14774999999999999          2.0751298112809111E-010
  0.14860000000000001          3.3274664861287046E-010
  0.14944999999999997          4.3917704515204127E-010
  0.15029999999999999          5.1891180176093205E-010
  0.15115000000000001          5.6582357377854759E-010
  0.15199999999999997          5.7606740288677209E-010
  0.15284999999999999          5.4842041667917121E-010
  0.15370000000000000          4.8440950340163782E-010
  0.15454999999999997          3.8821501720216996E-010
  0.15539999999999998          2.6635930429924516E-010
  0.15625000000000000          1.2720761787018109E-010
  0.15709999999999996         -1.9675206932183212E-011
  0.15794999999999998         -1.6425799286772388E-010
  0.15880000000000000         -2.9680542348320994E-010
  0.15965000000000001         -4.0860902654364155E-010
  0.16049999999999998         -4.9262683143716606E-010
  0.16134999999999999         -5.4398271315997231E-010
  0.16220000000000001         -5.6028550676624699E-010
  0.16304999999999997         -5.4174279410984693E-010
  0.16389999999999999         -4.9106186514658002E-010
  0.16475000000000001         -4.1314705149816053E-010
  0.16559999999999997         -3.1462397758913789E-010
  0.16644999999999999         -2.0323340854442956E-010
  0.16730000000000000         -8.7153736926291677E-011
  0.16814999999999997          2.5685041855444011E-011
  0.16899999999999998          1.2823196450887236E-010
  0.16985000000000000          2.1483287938384888E-010
  0.17069999999999996          2.8159242745461949E-010
  0.17154999999999998          3.2655310367627853E-010
  0.17240000000000000          3.4968470612468160E-010
  0.17325000000000002          3.5269481700223802E-010
  0.17409999999999998          3.3868893182190184E-010
  0.17494999999999999          3.1171987460535337E-010
  0.17580000000000001          2.7627502437157674E-010
  0.17664999999999997          2.3675336461578244E-010
  0.17749999999999999          1.9698309309692233E-010
  0.17835000000000001          1.5982781244611413E-010
  0.17919999999999997          1.2692135474331190E-010
  0.18004999999999999          9.8560573271695067E-011
  0.18090000000000001          7.3770892899263114E-011
  0.18174999999999997          5.0543069096086032E-011
  0.18259999999999998          2.6219834804266548E-011
  0.18345000000000000         -2.0110658996330124E-012
  0.18429999999999996         -3.6576015649669370E-011
  0.18514999999999998         -7.9000121769607599E-011
  0.18600000000000000         -1.2949392461413208E-010
  0.18684999999999996         -1.8671080969708784E-010
  0.18769999999999998         -2.4772495719995285E-010
  0.18855000000000000         -3.0825232669295299E-010
  0.18940000000000001         -3.6310040913577621E-010
  0.19024999999999997         -4.0679461703239200E-010
  0.19109999999999999         -4.3430217503188798E-010
  0.19195000000000001         -4.4175279441132559E-010
  0.19279999999999997         -4.2704987040131146E-010
  0.19364999999999999         -3.9028102773466131E-010
  0.19450000000000001         -3.3386484449135459E-010
  0.19534999999999997         -2.6240547905020496E-010
  0.19619999999999999         -1.8227046011542764E-010
  0.19705000000000000         -1.0094713337797087E-010
  0.19789999999999996         -2.6261373964399167E-011
  0.19874999999999998          3.4440184580833420E-011
  0.19960000000000000          7.5041716641038623E-011
  0.20044999999999996          9.1252099934725335E-011
  0.20129999999999998          8.0968973583386085E-011
  0.20215000000000000          4.4376969785356397E-011
  0.20300000000000001         -1.6223836465686708E-011
  0.20384999999999998         -9.6849974847661764E-011
  0.20469999999999999         -1.9246700751742408E-010
  0.20555000000000001         -2.9775169629478605E-010
  0.20639999999999997         -4.0791001908504831E-010
  0.20724999999999999         -5.1944346554126878E-010
  0.20810000000000001         -6.3077519508586204E-010
  0.20894999999999997         -7.4266147136133077E-010
  0.20979999999999999         -8.5832474934125885E-010
  0.21065000000000000         -9.8328568579714127E-010
  0.21149999999999997         -1.1249286869068978E-009
  0.21234999999999998         -1.2917843625132816E-009
  0.21320000000000000         -1.4926953271461453E-009
  0.21404999999999996         -1.7359462422706585E-009
  0.21489999999999998         -2.0284709178363657E-009
  0.21575000000000000         -2.3752698687197637E-009
  0.21659999999999996         -2.7791399783267694E-009
  0.21744999999999998         -3.2407350219583603E-009
  0.21829999999999999         -3.7589917630640768E-009
  0.21915000000000001         -4.3319001619758042E-009
  0.21999999999999997         -4.9574560096462188E-009
  0.22084999999999999         -5.6347623990576155E-009
  0.22170000000000001         -6.3650951946717657E-009
  0.22254999999999997         -7.1528186649684764E-009
  0.22339999999999999         -8.0060159625439557E-009
  0.22425000000000000         -8.9369076858572178E-009
  0.22509999999999997         -9.9616084963974756E-009
  0.22594999999999998         -1.1099709961299118E-008
  0.22680000000000000         -1.2373437291668878E-008
  0.22764999999999996         -1.3806407409858207E-008
  0.22849999999999998         -1.5422036741991256E-008
  0.22935000000000000         -1.7242026256946579E-008
  0.23019999999999996         -1.9284374336498270E-008
  0.23104999999999998         -2.1562048893095800E-008
  0.23190000000000000         -2.4081620092540720E-008
  0.23275000000000001         -2.6842299851324124E-008
  0.23359999999999997         -2.9834969845683533E-008
  0.23444999999999999         -3.3043050367122406E-008
  0.23530000000000001         -3.6443455340155859E-008
  0.23614999999999997         -4.0007033891415319E-008
  0.23699999999999999         -4.3702668257483555E-008
  0.23785000000000001         -4.7497668981601501E-008
  0.23869999999999997         -5.1360562863178790E-008
  0.23954999999999999         -5.5262781165804373E-008
  0.24040000000000000         -5.9181119674390792E-008
  0.24124999999999996         -6.3095764929235181E-008
  0.24209999999999998         -6.6990912183885287E-008
  0.24295000000000000         -7.0853126686551729E-008
  0.24379999999999996         -7.4665312927848831E-008
  0.24464999999999998         -7.8406291761057810E-008
  0.24550000000000000         -8.2047329396841986E-008
  0.24634999999999996         -8.5544866532613926E-008
  0.24719999999999998         -8.8839317864049751E-008
  0.24804999999999999         -9.1855942212329825E-008
  0.24890000000000001         -9.4495358408905673E-008
  0.24974999999999997         -9.6642360986428268E-008
  0.25059999999999999         -9.8156363258341981E-008
  0.25145000000000001         -9.8880694626122055E-008
  0.25229999999999997         -9.8642012712599562E-008
  0.25314999999999999         -9.7254708328660701E-008
  0.25400000000000000         -9.4521531082306625E-008
  0.25484999999999997         -9.0242849829198143E-008
  0.25569999999999998         -8.4219024007104531E-008
  0.25655000000000000         -7.6247002750865646E-008
  0.25739999999999996         -6.6135303834453585E-008
  0.25824999999999998         -5.3690825571775457E-008
  0.25910000000000000         -3.8745054513171038E-008
  0.25994999999999996         -2.1138872370173145E-008
  0.26079999999999998         -7.2024356836124226E-010
  0.26164999999999999          2.2645588052697434E-008
  0.26249999999999996          4.9075833031445951E-008
  0.26334999999999997          7.8677949206464848E-008
  0.26419999999999999          1.1153255013662950E-007
  0.26505000000000001          1.4769588903362776E-007
  0.26589999999999997          1.8720597830833155E-007
  0.26674999999999999          2.3002310061837885E-007
  0.26760000000000000          2.7609427421588654E-007
  0.26844999999999997          3.2531407705122486E-007
  0.26929999999999998          3.7749046860814618E-007
  0.27015000000000000          4.3234506038108214E-007
  0.27099999999999996          4.8955278417074742E-007
  0.27184999999999998          5.4867454020141862E-007
  0.27270000000000000          6.0916914126501702E-007
  0.27354999999999996          6.7040037805001419E-007
  0.27439999999999998          7.3153669306636918E-007
  0.27524999999999999          7.9178622534975546E-007
  0.27609999999999996          8.5009982181769682E-007
  0.27694999999999997          9.0547375214296203E-007
  0.27779999999999999          9.5675308237871261E-007
  0.27865000000000001          1.0027089772829092E-006
  0.27949999999999997          1.0420445102984398E-006
  0.28034999999999999          1.0735194060149868E-006
  0.28120000000000001          1.0957936161078435E-006
  0.28204999999999997          1.1076357005710824E-006
  0.28289999999999998          1.1077600336611526E-006
  0.28375000000000000          1.0949198265339639E-006
  0.28459999999999996          1.0680455065908858E-006
  0.28544999999999998          1.0261212867323948E-006
  0.28630000000000000          9.6826962994519491E-007
  0.28714999999999996          8.9382365241610637E-007
  0.28799999999999998          8.0225969709844487E-007
  0.28885000000000000          6.9306361217571657E-007
  0.28969999999999996          5.6623810362232307E-007
  0.29054999999999997          4.2195897610085149E-007
  0.29139999999999999          2.6043292191240924E-007
  0.29224999999999995          8.2440775127874375E-008
  0.29309999999999997         -1.1122836161160076E-007
  0.29394999999999999         -3.1917939481971799E-007
  0.29480000000000001         -5.3999854784686422E-007
  0.29564999999999997         -7.7173653598559529E-007
  0.29649999999999999         -1.0123838920739661E-006
  0.29735000000000000         -1.2594613401005376E-006
  0.29819999999999997         -1.5102765088394227E-006
  0.29904999999999998         -1.7619655675136426E-006
  0.29990000000000000         -2.0113679251704793E-006
  0.30074999999999996         -2.2549750787839515E-006
  0.30159999999999998         -2.4894347282822403E-006
  0.30245000000000000         -2.7111841518374269E-006
  0.30329999999999996         -2.9166025009847812E-006
  0.30414999999999998         -3.1021174371174445E-006
  0.30499999999999999         -3.2643307260388196E-006
  0.30584999999999996         -3.3999770987586542E-006
  0.30669999999999997         -3.5059424782359625E-006
  0.30754999999999999         -3.5791866047090437E-006
  0.30840000000000001         -3.6173256201617802E-006
  0.30924999999999997         -3.6180066152602978E-006
  0.31009999999999999         -3.5795383762836104E-006
  0.31095000000000000         -3.5006057189292411E-006
  0.31179999999999997         -3.3803687081928883E-006
  0.31264999999999998         -3.2186659075313708E-006
  0.31350000000000000         -3.0158112743549005E-006
  0.31434999999999996         -2.7725891061271070E-006
  0.31519999999999998         -2.4905500998763749E-006
  0.31605000000000000         -2.1715896298784838E-006
  0.31689999999999996         -1.8182500499967860E-006
  0.31774999999999998         -1.4336512958477955E-006
  0.31859999999999999         -1.0212619406395368E-006
  0.31944999999999996         -5.8517082617167894E-007
  0.32029999999999997         -1.2981550780478267E-007
  0.32114999999999999          3.3993686250836335E-007
  0.32199999999999995          8.1886200007311770E-007
  0.32284999999999997          1.3016340149866359E-006
  0.32369999999999999          1.7826560112710456E-006
  0.32455000000000001          2.2562192700230307E-006
  0.32539999999999997          2.7164919108377324E-006
  0.32624999999999998          3.1579848566204883E-006
  0.32710000000000000          3.5751355342096705E-006
  0.32794999999999996          3.9626387686206329E-006
  0.32879999999999998          4.3156704988754386E-006
  0.32965000000000000          4.6297128920957229E-006
  0.33049999999999996          4.9005435912544311E-006
  0.33134999999999998          5.1246351441623182E-006
  0.33220000000000000          5.2990218011226192E-006
  0.33304999999999996          5.4213111068195971E-006
  0.33389999999999997          5.4898357815155979E-006
  0.33474999999999999          5.5035969591701662E-006
  0.33559999999999995          5.4620147377428834E-006
  0.33644999999999997          5.3655227578964895E-006
  0.33729999999999999          5.2149885523803271E-006
  0.33815000000000001          5.0122419456661898E-006
  0.33899999999999997          4.7594757476108761E-006
  0.33984999999999999          4.4595758137921688E-006
  0.34070000000000000          4.1159159801188419E-006
  0.34154999999999996          3.7324568720806876E-006
  0.34239999999999998          3.3136694774962794E-006
  0.34325000000000000          2.8645416266946266E-006