 -0.12000000000000000         -2.2218912005963416E-010
 -0.11914999999999999         -5.3825661612427884E-010
 -0.11830000000000000         -5.5385878632564839E-010
 -0.11745000000000000         -3.8548120491321830E-010
 -0.11660000000000000         -5.0788906901421111E-010
 -0.11574999999999999         -1.5279947734253088E-009
 -0.11490000000000000         -3.7866131106936704E-009
 -0.11405000000000000         -6.9919735952635097E-009
 -0.11320000000000000         -1.0120533205420288E-008
 -0.11234999999999999         -1.1734631501114949E-008
 -0.11150000000000000         -1.0681219538455402E-008
 -0.11065000000000000         -6.9196841975939983E-009
 -0.10979999999999999         -2.0769448734211732E-009
 -0.10894999999999999          6.6661786799837485E-010
 -0.10810000000000000         -2.4422194117479103E-009
 -0.10725000000000000         -1.4037248219725523E-008
 -0.10639999999999999         -3.3769944415124057E-008
 -0.10554999999999999         -5.7072524217202241E-008
 -0.10470000000000000         -7.5320696931257006E-008
 -0.10385000000000000         -7.7806546719368218E-008
 -0.10299999999999999         -5.5295707506807411E-008
 -0.10214999999999999         -4.2331227950956147E-009
 -0.10130000000000000          6.9845883381332487E-008
 -0.10045000000000000          1.5120017674782584E-007
  -9.9599999999999994E-002     2.1604661064969996E-007
  -9.8750000000000004E-002     2.3798834485886097E-007
  -9.7900000000000001E-002     1.9550182456714210E-007
  -9.7049999999999997E-002     7.9320574328026124E-008
  -9.6199999999999994E-002    -1.0276928283877274E-007
  -9.5349999999999990E-002    -3.2567303623103282E-007
  -9.4500000000000001E-002    -5.5191418469555207E-007
  -9.3649999999999997E-002    -7.4068499505634617E-007
  -9.2799999999999994E-002    -8.5844936398005643E-007
  -9.1950000000000004E-002    -8.8779268136082060E-007
  -9.1100000000000000E-002    -8.3160496819973951E-007
  -9.0249999999999997E-002    -7.1115221728180517E-007
  -8.9399999999999993E-002    -5.5870390552087436E-007
  -8.8549999999999990E-002    -4.0736055163673272E-007
  -8.7700000000000000E-002    -2.8183815118837674E-007
  -8.6849999999999997E-002    -1.9367197843499476E-007
  -8.5999999999999993E-002    -1.4265476493973662E-007
  -8.5150000000000003E-002    -1.2384556099302932E-007
  -8.4300000000000000E-002    -1.3708648819429965E-007
  -8.3449999999999996E-002    -1.9458785464155207E-007
  -8.2600000000000007E-002    -3.2256404392408182E-007
  -8.1749999999999989E-002    -5.5494982036262270E-007
  -8.0900000000000000E-002    -9.2041617088971632E-007
  -8.0049999999999996E-002    -1.4270252075512581E-006
  -7.9199999999999993E-002    -2.0505796364931753E-006
  -7.8350000000000003E-002    -2.7323447204822892E-006
  -7.7499999999999999E-002    -3.3891197600575067E-006
  -7.6649999999999996E-002    -3.9343281279220299E-006
  -7.5800000000000006E-002    -4.3045303894144880E-006
  -7.4949999999999989E-002    -4.4829767766662089E-006
  -7.4099999999999999E-002    -4.5116096502862660E-006
  -7.3249999999999996E-002    -4.4861280117024590E-006
  -7.2399999999999992E-002    -4.5337566686157909E-006
  -7.1550000000000002E-002    -4.7794434781090596E-006
  -7.0699999999999999E-002    -5.3104460771259091E-006
  -6.9849999999999995E-002    -6.1507780317381910E-006
  -6.9000000000000006E-002    -7.2542742495067123E-006
  -6.8149999999999988E-002    -8.5197407626637920E-006
  -6.7299999999999999E-002    -9.8239382625270232E-006
  -6.6449999999999995E-002    -1.1062788477796289E-005
  -6.5599999999999992E-002    -1.2187044794172464E-005
  -6.4750000000000002E-002    -1.3220891646995250E-005
  -6.3899999999999998E-002    -1.4256421647241679E-005
  -6.3049999999999995E-002    -1.5425176897654032E-005
  -6.2199999999999998E-002    -1.6855490647064644E-005
  -6.1350000000000002E-002    -1.8629434017694953E-005
  -6.0499999999999998E-002    -2.0753488965231148E-005
  -5.9650000000000002E-002    -2.3152841725389826E-005
  -5.8799999999999998E-002    -2.5691745101548435E-005
  -5.7950000000000002E-002    -2.8215152573957429E-005
  -5.7099999999999998E-002    -3.0596735322728220E-005
  -5.6249999999999994E-002    -3.2778817807325864E-005
  -5.5400000000000005E-002    -3.4791680946567280E-005
  -5.4550000000000001E-002    -3.6744611023128212E-005
  -5.3699999999999998E-002    -3.8791958842043079E-005
  -5.2849999999999994E-002    -4.1084665097973971E-005
  -5.2000000000000005E-002    -4.3721663344653658E-005
  -5.1150000000000001E-002    -4.6716538755762907E-005
  -5.0299999999999997E-002    -4.9990669192851226E-005
  -4.9449999999999994E-002    -5.3392113341752738E-005
  -4.8600000000000004E-002    -5.6735038968940899E-005
  -4.7750000000000001E-002    -5.9848400071570260E-005
  -4.6899999999999997E-002    -6.2616067004127220E-005
  -4.6049999999999994E-002    -6.4995323911356650E-005
  -4.5200000000000004E-002    -6.7011862709609221E-005
  -4.4350000000000001E-002    -6.8731701526502298E-005
  -4.3499999999999997E-002    -7.0221499774874240E-005
  -4.2649999999999993E-002    -7.1504532910758828E-005
  -4.1800000000000004E-002    -7.2534810008037173E-005
  -4.0950000000000000E-002    -7.3193548897148263E-005
  -4.0099999999999997E-002    -7.3309903262740346E-005
  -3.9249999999999993E-002    -7.2703017354050297E-005
  -3.8400000000000004E-002    -7.1214978489206001E-005
  -3.7550000000000000E-002    -6.8750460063018407E-005
  -3.6699999999999997E-002    -6.5288757852598211E-005
  -3.5850000000000007E-002    -6.0866320201562987E-005
  -3.5000000000000003E-002    -5.5556921374060714E-005
  -3.4150000000000000E-002    -4.9425039754805644E-005
  -3.3299999999999996E-002    -4.2485737096065591E-005
  -3.2450000000000007E-002    -3.4684941543193233E-005
  -3.1600000000000003E-002    -2.5897119188168110E-005
  -3.0750000000000000E-002    -1.5955102607813853E-005
  -2.9899999999999996E-002    -4.6899494891107572E-006
  -2.9050000000000006E-002     8.0254022514112083E-006
  -2.8200000000000003E-002     2.2235867270878763E-005
  -2.7349999999999999E-002     3.7895480594189881E-005
  -2.6499999999999996E-002     5.4866560739298174E-005
  -2.5650000000000006E-002     7.2934150962048123E-005
  -2.4800000000000003E-002     9.1854589758886358E-005
  -2.3949999999999999E-002     1.1140671636600410E-004
  -2.3099999999999996E-002     1.3141266835660440E-004
  -2.2250000000000006E-002     1.5175365229567518E-004
  -2.1400000000000002E-002     1.7234570748746495E-004
  -2.0549999999999999E-002     1.9312099455740244E-004
  -1.9699999999999995E-002     2.1398130047207455E-004
  -1.8850000000000006E-002     2.3477459323089115E-004
  -1.8000000000000002E-002     2.5527796064090768E-004
  -1.7149999999999999E-002     2.7516964988002460E-004
  -1.6299999999999995E-002     2.9406135697303401E-004
  -1.5450000000000005E-002     3.1156604813182827E-004
  -1.4600000000000002E-002     3.2730332187238566E-004
  -1.3749999999999998E-002     3.4092512299199349E-004
  -1.2899999999999995E-002     3.5214531293579132E-004
  -1.2050000000000005E-002     3.6071208409718626E-004
  -1.1200000000000002E-002     3.6641098249039087E-004
  -1.0349999999999998E-002     3.6907105595644293E-004
  -9.5000000000000084E-003     3.6848342498650320E-004
  -8.6500000000000049E-003     3.6441998807562733E-004
  -7.8000000000000014E-003     3.5665301388522561E-004
  -6.9499999999999978E-003     3.4494931578724075E-004
  -6.1000000000000082E-003     3.2913138913021837E-004
  -5.2500000000000047E-003     3.0909775752617236E-004
  -4.4000000000000011E-003     2.8480277416369866E-004
  -3.5499999999999976E-003     2.5630671801757030E-004
  -2.7000000000000079E-003     2.2372890130232907E-004
  -1.8500000000000044E-003     1.8723110856577350E-004
  -1.0000000000000009E-003     1.4706335220588480E-004
  -1.4999999999999736E-004     1.0353053389786353E-004
   6.9999999999999230E-004     5.6974917986985906E-005
   1.5499999999999958E-003     7.8157261980790933E-006
   2.3999999999999994E-003    -4.3455738892472784E-005
   3.2500000000000029E-003    -9.6335296746651033E-005
   4.0999999999999925E-003    -1.5025118878768179E-004
   4.9499999999999961E-003    -2.0457409949215357E-004
   5.7999999999999996E-003    -2.5865474949767929E-004
   6.6499999999999893E-003    -3.1181402900135697E-004
   7.5000000000000067E-003    -3.6332918046721530E-004
   8.3499999999999963E-003    -4.1249515862426664E-004
   9.1999999999999860E-003    -4.5868613410238093E-004
   1.0050000000000003E-002    -5.0126205640806023E-004
   1.0899999999999993E-002    -5.3954566293102680E-004
   1.1750000000000010E-002    -5.7285663553936685E-004
   1.2600000000000000E-002    -6.0050680701436625E-004
   1.3449999999999990E-002    -6.2184783348141379E-004
   1.4300000000000007E-002    -6.3636019613422224E-004
   1.5149999999999997E-002    -6.4366622865542401E-004
   1.5999999999999986E-002    -6.4353369481326525E-004
   1.6850000000000004E-002    -6.3584248758353384E-004
   1.7699999999999994E-002    -6.2059162572306991E-004
   1.8549999999999983E-002    -5.9785737013098752E-004
   1.9400000000000001E-002    -5.6778160998902398E-004
   2.0249999999999990E-002    -5.3056470777792034E-004
   2.1100000000000008E-002    -4.8646806671865219E-004
   2.1949999999999997E-002    -4.3585969368980246E-004
   2.2799999999999987E-002    -3.7914449140866863E-004
   2.3650000000000004E-002    -3.1683864650377050E-004
   2.4499999999999994E-002    -2.4965482230507883E-004
   2.5349999999999984E-002    -1.7843665312056861E-004
   2.6200000000000001E-002    -1.0420106852812062E-004
   2.7049999999999991E-002    -2.8050126016527892E-005
   2.7900000000000008E-002     4.8826977679191155E-005
   2.8749999999999998E-002     1.2525646554840605E-004
   2.9599999999999987E-002     2.0014077806923027E-004
   3.0450000000000005E-002     2.7245042837372281E-004
   3.1299999999999994E-002     3.4126441777508187E-004
   3.2149999999999984E-002     4.0572025650091343E-004
   3.3000000000000002E-002     4.6497881455968056E-004
   3.3849999999999991E-002     5.1824751913868029E-004
   3.4700000000000009E-002     5.6476744191958327E-004
   3.5549999999999998E-002     6.0376949854369991E-004
   3.6399999999999988E-002     6.3456587355590482E-004
   3.7250000000000005E-002     6.5659857795699172E-004
   3.8099999999999995E-002     6.6943899200521979E-004
   3.8949999999999985E-002     6.7280360779928229E-004
   3.9800000000000002E-002     6.6660001149404643E-004
   4.0649999999999992E-002     6.5101158774406647E-004
   4.1500000000000009E-002     6.2640202615498039E-004
   4.2349999999999999E-002     5.9318563131595349E-004
   4.3199999999999988E-002     5.5194272985737607E-004
   4.4050000000000006E-002     5.0332872267405768E-004
   4.4899999999999995E-002     4.4799571035765385E-004
   4.5749999999999985E-002     3.8676923629061633E-004
   4.6600000000000003E-002     3.2058021439285394E-004
   4.7449999999999992E-002     2.5033463324714353E-004
   4.8299999999999982E-002     1.7696726777234628E-004
   4.9149999999999999E-002     1.0149944657361762E-004
   4.9999999999999989E-002     2.5024963015787214E-005
   5.0850000000000006E-002    -5.1303015754180797E-005
   5.1699999999999996E-002    -1.2633204690951132E-004
   5.2549999999999986E-002    -1.9888994142272835E-004
   5.3400000000000003E-002    -2.6785680169444663E-004
   5.4249999999999993E-002    -3.3210512073782845E-004
   5.5099999999999982E-002    -3.9060626135887133E-004
   5.5950000000000000E-002    -4.4260619096123241E-004
   5.6799999999999989E-002    -4.8754997646181884E-004
   5.7650000000000007E-002    -5.2501223496201929E-004
   5.8499999999999996E-002    -5.5472173095584424E-004
   5.9349999999999986E-002    -5.7651211193890189E-004
   6.0200000000000004E-002    -5.9027670844055908E-004
   6.1049999999999993E-002    -5.9596203874848902E-004
   6.1899999999999983E-002    -5.9361570357502856E-004
   6.2750000000000000E-002    -5.8336747052406763E-004
   6.3599999999999990E-002    -5.6538753217430559E-004
   6.4450000000000007E-002    -5.3992565175029579E-004
   6.5299999999999997E-002    -5.0743865909202296E-004
   6.6149999999999987E-002    -4.6858699888487109E-004
   6.7000000000000004E-002    -4.2404876513883619E-004
   6.7849999999999994E-002    -3.7470962879952762E-004
   6.8699999999999983E-002    -3.2158991194950414E-004
   6.9550000000000001E-002    -2.6564806464051327E-004
   7.0399999999999990E-002    -2.0782571651435200E-004
   7.1249999999999980E-002    -1.4904331957027775E-004
   7.2099999999999997E-002    -9.0153651076161452E-005
   7.2949999999999987E-002    -3.1880833317935679E-005
   7.3800000000000004E-002     2.5048939412349079E-005
   7.4649999999999994E-002     7.9944091519518722E-005
   7.5499999999999984E-002     1.3213683845214857E-004
   7.6350000000000001E-002     1.8098555689831375E-004
   7.7199999999999991E-002     2.2592784616501903E-004
   7.8049999999999981E-002     2.6644610982772085E-004
   7.8899999999999998E-002     3.0207049482622393E-004
   7.9749999999999988E-002     3.3238693013468135E-004
   8.0600000000000005E-002     3.5709977829371273E-004
   8.1449999999999995E-002     3.7604015777640968E-004
   8.2299999999999984E-002     3.8916234107532805E-004
   8.3150000000000002E-002     3.9655598548426140E-004
   8.3999999999999991E-002     3.9844620100153014E-004
   8.4849999999999981E-002     3.9513534880353062E-004
   8.5699999999999998E-002     3.8696818257268306E-004
   8.6549999999999988E-002     3.7432909183340228E-004
   8.7400000000000005E-002     3.5760291023894297E-004
   8.8249999999999995E-002     3.3715061324922076E-004
   8.9099999999999985E-002     3.1334355947450828E-004
   8.9950000000000002E-002     2.8659150784471744E-004
   9.0799999999999992E-002     2.5737719167642499E-004
   9.1649999999999981E-002     2.2622410405562145E-004
   9.2499999999999999E-002     1.9369963417411397E-004
   9.3349999999999989E-002     1.6041880904237737E-004
   9.4200000000000006E-002     1.2697716236691306E-004
   9.5049999999999996E-002     9.3925424232989198E-005
   9.5899999999999985E-002     6.1746031782603785E-005
   9.6750000000000003E-002     3.0843845177832847E-005
   9.7599999999999992E-002     1.5650579749414465E-006
   9.8449999999999982E-002    -2.5826252458945764E-005
   9.9299999999999999E-002    -5.1126506576455911E-005
  0.10014999999999999         -7.4133844128666370E-005
  0.10099999999999998         -9.4652093868023842E-005
  0.10185000000000000         -1.1251194706824431E-004
  0.10269999999999999         -1.2759553782148704E-004
  0.10355000000000000         -1.3983872409448775E-004
  0.10439999999999999         -1.4924695196616680E-004
  0.10524999999999998         -1.5587008710699730E-004
  0.10610000000000000         -1.5981038861734580E-004
  0.10694999999999999         -1.6118157307401201E-004
  0.10779999999999998         -1.6008989406708098E-004
  0.10865000000000000         -1.5667029176521727E-004
  0.10949999999999999         -1.5107257967705707E-004
  0.11035000000000000         -1.4348510408866596E-004
  0.11119999999999999         -1.3415315920085874E-004
  0.11204999999999998         -1.2335887492580090E-004
  0.11290000000000000         -1.1142678751014116E-004
  0.11374999999999999         -9.8713173272121493E-005
  0.11459999999999998         -8.5560802742010248E-005
  0.11545000000000000         -7.2255245348994734E-005
  0.11629999999999999         -5.9006712445231808E-005
  0.11715000000000000         -4.5956837425623615E-005
  0.11799999999999999         -3.3201231166624494E-005
  0.11884999999999998         -2.0833250674376739E-005
  0.11970000000000000         -8.9460744488121244E-006
  0.12054999999999999          2.3203421698774182E-006
  0.12139999999999998          1.2769996593230086E-005
  0.12225000000000000          2.2188323522244644E-005
  0.12309999999999999          3.0371338016015661E-005
  0.12395000000000000          3.7172880351475911E-005
  0.12479999999999999          4.2543129287886572E-005
  0.12564999999999998          4.6532434951685442E-005
  0.12650000000000000          4.9250599848713755E-005
  0.12734999999999999          5.0843179691758863E-005
  0.12819999999999998          5.1447428556961332E-005
  0.12905000000000000          5.1150960946084874E-005
  0.12989999999999999          4.9986745229387551E-005
  0.13074999999999998          4.7935260317922045E-005
  0.13159999999999999          4.4953671648104715E-005
  0.13245000000000001          4.1024634387095981E-005
  0.13329999999999997          3.6181350243840635E-005
  0.13414999999999999          3.0526902525966606E-005
  0.13500000000000001          2.4239109969515291E-005
  0.13584999999999997          1.7533629734665994E-005
  0.13669999999999999          1.0645010712748665E-005
  0.13755000000000001          3.7944234356055092E-006
  0.13839999999999997         -2.8478924010329514E-006
  0.13924999999999998         -9.1640720419617608E-006
  0.14010000000000000         -1.5081443548703937E-005
  0.14094999999999996         -2.0556465009693272E-005
  0.14179999999999998         -2.5555233811744056E-005
  0.14265000000000000         -3.0047419158487533E-005
  0.14350000000000002         -3.3993443826857649E-005
  0.14434999999999998         -3.7339398563900216E-005
  0.14520000000000000         -4.0030192181622478E-005
  0.14605000000000001         -4.2012782638318787E-005
  0.14689999999999998         -4.3245434989533214E-005
  0.14774999999999999         -4.3703510567635979E-005
  0.14860000000000001         -4.3374502951056245E-005
  0.14944999999999997         -4.2262458961499315E-005
  0.15029999999999999         -4.0389210136663504E-005
  0.15115000000000001         -3.7796844933033941E-005
  0.15199999999999997         -3.4545273686786642E-005
  0.15284999999999999         -3.0708913915427906E-005
  0.15370000000000000         -2.6369841720112756E-005
  0.15454999999999997         -2.1609782462285021E-005
  0.15539999999999998         -1.6504366386409506E-005
  0.15625000000000000         -1.1117897760490162E-005
  0.15709999999999996         -5.5001335749862531E-006
  0.15794999999999998          3.0736696921029768E-007
  0.15880000000000000          6.2516966438380514E-006
  0.15965000000000001          1.2257713396978435E-005
  0.16049999999999998          1.8219691003080770E-005
  0.16134999999999999          2.4001174494947953E-005
  0.16220000000000001          2.9448233302600224E-005
  0.16304999999999997          3.4412436264015380E-005
  0.16389999999999999          3.8776542057049457E-005
  0.16475000000000001          4.2472152195310163E-005
  0.16559999999999997          4.5486774238628848E-005
  0.16644999999999999          4.7854352204444503E-005
  0.16730000000000000          4.9633471962942371E-005
  0.16814999999999997          5.0875353101121967E-005
  0.16899999999999998          5.1596194393864069E-005
  0.16985000000000000          5.1766623189818115E-005
  0.17069999999999996          5.1316172055605130E-005
  0.17154999999999998          5.0158100669367282E-005
  0.17240000000000000          4.8218265150818949E-005
  0.17325000000000002          4.5462204132742258E-005
  0.17409999999999998          4.1916674910908237E-005
  0.17494999999999999          3.7668068031015472E-005
  0.17580000000000001          3.2846612048725568E-005
  0.17664999999999997          2.7601995164893046E-005
  0.17749999999999999          2.2073948079862383E-005
  0.17835000000000001          1.6369165594758343E-005
  0.17919999999999997          1.0556569188164812E-005
  0.18004999999999999          4.6790782371061251E-006
  0.18090000000000001         -1.2310707610320400E-006
  0.18174999999999997         -7.1337887280086855E-006
  0.18259999999999998         -1.2970333556993705E-005
  0.18345000000000000         -1.8663807483968556E-005
  0.18429999999999996         -2.4127395829432800E-005
  0.18514999999999998         -2.9280391331410345E-005
  0.18600000000000000         -3.4061328535703618E-005
  0.18684999999999996         -3.8430352974219348E-005
  0.18769999999999998         -4.2364799284422661E-005
  0.18855000000000000         -4.5844184040477916E-005
  0.18940000000000001         -4.8834719330187836E-005
  0.19024999999999997         -5.1279040964913409E-005
  0.19109999999999999         -5.3096904681878925E-005
  0.19195000000000001         -5.4196515685269912E-005
  0.19279999999999997         -5.4495760240650719E-005
  0.19364999999999999         -5.3946469195974352E-005
  0.19450000000000001         -5.2548023389416969E-005
  0.19534999999999997         -5.0350248742084876E-005
  0.19619999999999999         -4.7441268448110524E-005
  0.19705000000000000         -4.3926023690414979E-005
  0.19789999999999996         -3.9905712456440589E-005
  0.19874999999999998         -3.5460458839406434E-005
  0.19960000000000000         -3.0642685241135545E-005
  0.20044999999999996         -2.5483953286018876E-005
  0.20129999999999998         -2.0010245154227427E-005
  0.20215000000000000         -1.4259234136999678E-005
  0.20300000000000001         -8.2920081434147768E-006
  0.20384999999999998         -2.1951791151006668E-006
  0.20469999999999999          3.9292748884234836E-006
  0.20555000000000001          9.9773661873343017E-006
  0.20639999999999997          1.5855858314462002E-005
  0.20724999999999999          2.1493531089377448E-005
  0.20810000000000001          2.6840617870321256E-005
  0.20894999999999997          3.1859533372644250E-005
  0.20979999999999999          3.6512455421624212E-005
  0.21065000000000000          4.0750124965345690E-005
  0.21149999999999997          4.4507417825538273E-005
  0.21234999999999998          4.7709580472323230E-005
  0.21320000000000000          5.0283008609798116E-005
  0.21404999999999996          5.2167887623649438E-005
  0.21489999999999998          5.3331856087953140E-005
  0.21575000000000000          5.3771534793103598E-005
  0.21659999999999996          5.3507316122107279E-005
  0.21744999999999998          5.2572655157657547E-005
  0.21829999999999999          5.0999852658290603E-005
  0.21915000000000001          4.8812616342356702E-005
  0.21999999999999997          4.6025377506822759E-005
  0.22084999999999999          4.2650323537077974E-005
  0.22170000000000001          3.8710155818293103E-005
  0.22254999999999997          3.4250055664968199E-005
  0.22339999999999999          2.9342747160372280E-005
  0.22425000000000000          2.4084055538593562E-005
  0.22509999999999997          1.8580143834644473E-005
  0.22594999999999998          1.2930433301607183E-005
  0.22680000000000000          7.2122591063683095E-006
  0.22764999999999996          1.4740945758953201E-006
  0.22849999999999998         -4.2590423221144445E-006
  0.22935000000000000         -9.9724729555720082E-006
  0.23019999999999996         -1.5642210755209681E-005
  0.23104999999999998         -2.1217268717321564E-005
  0.23190000000000000         -2.6614061879908972E-005
  0.23275000000000001         -3.1720871692496364E-005
  0.23359999999999997         -3.6414447291709206E-005
  0.23444999999999999         -4.0582458690609338E-005
  0.23530000000000001         -4.4143935367022214E-005
  0.23614999999999997         -4.7061171619279350E-005
  0.23699999999999999         -4.9338440022485355E-005
  0.23785000000000001         -5.1009058845535242E-005
  0.23869999999999997         -5.2113868905935003E-005
  0.23954999999999999         -5.2680002404161814E-005
  0.24040000000000000         -5.2707751077420793E-005
  0.24124999999999996         -5.2168312648682638E-005
  0.24209999999999998         -5.1013400075940429E-005
  0.24295000000000000         -4.9193832806325802E-005
  0.24379999999999996         -4.6679265433338156E-005
  0.24464999999999998         -4.3473270109811757E-005
  0.24550000000000000         -3.9618969510494055E-005
  0.24634999999999996         -3.5195196464910961E-005
  0.24719999999999998         -3.0305475001481144E-005
  0.24804999999999999         -2.5061909798870172E-005
  0.24890000000000001         -1.9570610638057179E-005
  0.24974999999999997         -1.3922942379913408E-005
  0.25059999999999999         -8.1913317516656048E-006
  0.25145000000000001         -2.4319463417355421E-006
  0.25229999999999997          3.3096519988866745E-006
  0.25314999999999999          8.9922175639743856E-006
  0.25400000000000000          1.4573185567484563E-005
  0.25484999999999997          2.0004403340814524E-005
  0.25569999999999998          2.5229484315518047E-005
  0.25655000000000000          3.0183416302259313E-005
  0.25739999999999996          3.4791655249567265E-005
  0.25824999999999998          3.8971754318753351E-005
  0.25910000000000000          4.2639464163855249E-005
  0.25994999999999996          4.5717788456797589E-005
  0.26079999999999998          4.8146905982644926E-005
  0.26164999999999999          4.9894548927919396E-005
  0.26249999999999996          5.0962473979608469E-005
  0.26334999999999997          5.1384028399766460E-005
  0.26419999999999999          5.1214892633988089E-005
  0.26505000000000001          5.0516409611519496E-005
  0.26589999999999997          4.9335769415737911E-005
  0.26674999999999999          4.7691531308706410E-005
  0.26760000000000000          4.5569106000226727E-005
  0.26844999999999997          4.2929602217002091E-005
  0.26929999999999998          3.9729837006487217E-005
  0.27015000000000000          3.5947615862142052E-005
  0.27099999999999996          3.1605119926419808E-005
  0.27184999999999998          2.6780226051815661E-005
  0.27270000000000000          2.1600147641404324E-005
  0.27354999999999996          1.6219490895148981E-005
  0.27439999999999998          1.0787444606858905E-005
  0.27524999999999999          5.4151256341877589E-006
  0.27609999999999996          1.5549673601712028E-007
  0.27694999999999997         -4.9970487081881081E-006
  0.27779999999999999         -1.0087146643302622E-005
  0.27865000000000001         -1.5163743377611775E-005
  0.27949999999999997         -2.0241669756865146E-005
  0.28034999999999999         -2.5274199528689499E-005
  0.28120000000000001         -3.0145772604890089E-005
  0.28204999999999997         -3.4689588791217069E-005
  0.28289999999999998         -3.8724744136523773E-005
  0.28375000000000000         -4.2100519022959993E-005
  0.28459999999999996         -4.4733930598816804E-005
  0.28544999999999998         -4.6627968957247615E-005
  0.28630000000000000         -4.7861755108409538E-005
  0.28714999999999996         -4.8557945662916615E-005
  0.28799999999999998         -4.8838517376124123E-005
  0.28885000000000000         -4.8781278258346241E-005
  0.28969999999999996         -4.8393645519632365E-005
  0.29054999999999997         -4.7611506681452900E-005
  0.29139999999999999         -4.6322720676282575E-005
  0.29224999999999995         -4.4408308151373334E-005
  0.29309999999999997         -4.1786510695492002E-005
  0.29394999999999999         -3.8445346979158305E-005
  0.29480000000000001         -3.4454265728872784E-005
  0.29564999999999997         -2.9951123161423197E-005
  0.29649999999999999         -2.5110451697910160E-005
  0.29735000000000000         -2.0103377694099067E-005
  0.29819999999999997         -1.5061860035467314E-005
  0.29904999999999998         -1.0058815124596036E-005
  0.29990000000000000         -5.1079910441171448E-006
  0.30074999999999996         -1.8120334365730986E-007
  0.30159999999999998          4.7637570541407408E-006
  0.30245000000000000          9.7534655469700586E-006
  0.30329999999999996          1.4777053359118369E-005
  0.30414999999999998          1.9777541102077503E-005
  0.30499999999999999          2.4656033905020795E-005
  0.30584999999999996          2.9286330850909407E-005
  0.30669999999999997          3.3533733956252192E-005
  0.30754999999999999          3.7274383593384117E-005
  0.30840000000000001          4.0411241756241209E-005
  0.30924999999999997          4.2884415405252451E-005
  0.31009999999999999          4.4676090278559304E-005
  0.31095000000000000          4.5810590616661301E-005
  0.31179999999999997          4.6347558552209098E-005
  0.31264999999999998          4.6369041922813056E-005
  0.31350000000000000          4.5962588522068391E-005
  0.31434999999999996          4.5201300096895362E-005
  0.31519999999999998          4.4124881670698451E-005
  0.31605000000000000          4.2727526360433029E-005
  0.31689999999999996          4.0959048804002959E-005
  0.31774999999999998          3.8739674432393027E-005
  0.31859999999999999          3.5987935178717932E-005
  0.31944999999999996          3.2655402618746338E-005
  0.32029999999999997          2.8755476527437618E-005
  0.32114999999999999          2.4377352060387639E-005
  0.32199999999999995          1.9678557068259299E-005
  0.32284999999999997          1.4855021859311757E-005
  0.32369999999999999          1.0096262661614141E-005
  0.32455000000000001          5.5392404170940527E-006
  0.32539999999999997          1.2358281794090796E-006
  0.32624999999999998         -2.8547920506050051E-006
  0.32710000000000000         -6.8438040165069032E-006
  0.32794999999999996         -1.0866738367302483E-005
  0.32879999999999998         -1.5027954763810297E-005
  0.32965000000000000         -1.9353630910899078E-005
  0.33049999999999996         -2.3768622454611722E-005
  0.33134999999999998         -2.8105031960085514E-005
  0.33220000000000000         -3.2140808599538252E-005
  0.33304999999999996         -3.5655768796335888E-005
  0.33389999999999997         -3.8486761752941450E-005
  0.33474999999999999         -4.0564607393762409E-005
  0.33559999999999995         -4.1921435543659102E-005
  0.33644999999999997         -4.2667863390733111E-005
  0.33729999999999999         -4.2948740723532528E-005
  0.33815000000000001         -4.2892737564076270E-005
  0.33899999999999997         -4.2573778989735375E-005
  0.33984999999999999         -4.1995181634221302E-005
  0.34070000000000000         -4.1099518596399230E-005
  0.34154999999999996         -3.9798731241328896E-005
  0.34239999999999998         -3.8011590533593053E-005