 -0.12000000000000000          0.0000000000000000
 -0.11914999999999999          0.0000000000000000
 -0.11830000000000000          0.0000000000000000
 -0.11745000000000000          0.0000000000000000
 -0.11660000000000000         -3.0719576735045811E-018
 -0.11574999999999999         -2.0702717807639621E-017
 -0.11490000000000000         -6.8674600171635437E-017
 -0.11405000000000000         -1.3479470794106131E-016
 -0.11320000000000000         -1.1355509623236769E-016
 -0.11234999999999999          2.5439323012015963E-016
 -0.11150000000000000          1.3442011166069706E-015
 -0.11065000000000000          3.3931816762511627E-015
 -0.10979999999999999          5.9829520134763376E-015
 -0.10894999999999999          7.4017213498749242E-015
 -0.10810000000000000          4.3067803560539648E-015
 -0.10725000000000000         -7.6780635852268631E-015
 -0.10639999999999999         -3.1859119248182094E-014
 -0.10554999999999999         -6.6825982523768611E-014
 -0.10470000000000000         -1.0224352823347910E-013
 -0.10385000000000000         -1.1628201681709895E-013
 -0.10299999999999999         -7.7685423422001954E-014
 -0.10214999999999999          4.4910598634529130E-014
 -0.10130000000000000          2.6595281898508742E-013
 -0.10045000000000000          5.6163235612601505E-013
  -9.9599999999999994E-002     8.5216985635740717E-013
  -9.8750000000000004E-002     9.9892991481176647E-013
  -9.7900000000000001E-002     8.2723112640908495E-013
  -9.7049999999999997E-002     1.7999394740039255E-013
  -9.6199999999999994E-002    -1.0037966414273014E-012
  -9.5349999999999990E-002    -2.6059782325272728E-012
  -9.4500000000000001E-002    -4.2738402761401259E-012
  -9.3649999999999997E-002    -5.4290046936762130E-012
  -9.2799999999999994E-002    -5.3678992973943413E-012
  -9.1950000000000004E-002    -3.4570732295259920E-012
  -9.1100000000000000E-002     6.0849196602027943E-013
  -9.0249999999999997E-002     6.5522345097471910E-012
  -8.9399999999999993E-002     1.3360193853648855E-011
  -8.8549999999999990E-002     1.9313148753466209E-011
  -8.7700000000000000E-002     2.2262734416919667E-011
  -8.6849999999999997E-002     2.0142454476231320E-011
  -8.5999999999999993E-002     1.1623203176798891E-011
  -8.5150000000000003E-002    -3.2505004714354338E-012
  -8.4300000000000000E-002    -2.2645899010562261E-011
  -8.3449999999999996E-002    -4.2933792172075978E-011
  -8.2600000000000007E-002    -5.9190976578016182E-011
  -8.1749999999999989E-002    -6.6187266388481954E-011
  -8.0900000000000000E-002    -5.9682505082790659E-011
  -8.0049999999999996E-002    -3.7736104442611631E-011
  -7.9199999999999993E-002    -1.6753783194727415E-012
  -7.8350000000000003E-002     4.3592411324953907E-011
  -7.7499999999999999E-002     9.0106083225864736E-011
  -7.6649999999999996E-002     1.2819589712891138E-010
  -7.5800000000000006E-002     1.4841286293286174E-010
  -7.4949999999999989E-002     1.4363444773297739E-010
  -7.4099999999999999E-002     1.1086322490693028E-010
  -7.3249999999999996E-002     5.2280115846066459E-011
  -7.2399999999999992E-002    -2.4726189323688051E-011
  -7.1550000000000002E-002    -1.0860027498606696E-010
  -7.0699999999999999E-002    -1.8553362966613033E-010
  -6.9849999999999995E-002    -2.4186298212591453E-010
  -6.9000000000000006E-002    -2.6647250928872846E-010
  -6.8149999999999988E-002    -2.5274422576608035E-010
  -6.7299999999999999E-002    -1.9972353928679630E-010
  -6.6449999999999995E-002    -1.1234840867953652E-010
  -6.5599999999999992E-002    -7.7458210155557102E-013
  -6.4750000000000002E-002     1.2102512691482920E-010
  -6.3899999999999998E-002     2.3712871974349871E-010
  -6.3049999999999995E-002     3.3172674152110068E-010
  -6.2199999999999998E-002     3.9112968133502178E-010
  -6.1350000000000002E-002     4.0551949055901493E-010
  -6.0499999999999998E-002     3.7027904069296182E-010
  -5.9650000000000002E-002     2.8676438751780910E-010
  -5.8799999999999998E-002     1.6240590589918981E-010
  -5.7950000000000002E-002     1.0069987748785342E-011
  -5.7099999999999998E-002    -1.5331335477814356E-010
  -5.6249999999999994E-002    -3.0874299835253285E-010
  -5.5400000000000005E-002    -4.3752194919653554E-010
  -5.4550000000000001E-002    -5.2367612294156001E-010
  -5.3699999999999998E-002    -5.5603354506144666E-010
  -5.2849999999999994E-002    -5.2962114495569611E-010
  -5.2000000000000005E-002    -4.4616245820722130E-010
  -5.1150000000000001E-002    -3.1364085447566298E-010
  -5.0299999999999997E-002    -1.4508362580937441E-010
  -4.9449999999999994E-002     4.3139271816456777E-011
  -4.8600000000000004E-002     2.3315779408024221E-010
  -4.7750000000000001E-002     4.0728988367991880E-010
  -4.6899999999999997E-002     5.4940773535891099E-010
  -4.6049999999999994E-002     6.4596432089528986E-010
  -4.5200000000000004E-002     6.8678300255887930E-010
  -4.4350000000000001E-002     6.6575079545467660E-010
  -4.3499999999999997E-002     5.8150392449239753E-010
  -4.2649999999999993E-002     4.3807628410461069E-010
  -4.1800000000000004E-002     2.4534165064185701E-010
  -4.0950000000000000E-002     1.8988345611833470E-011
  -4.0099999999999997E-002    -2.2023033518528139E-010
  -3.9249999999999993E-002    -4.4812881803129520E-010
  -3.8400000000000004E-002    -6.3956573003416204E-010
  -3.7550000000000000E-002    -7.7151083958666258E-010
  -3.6699999999999997E-002    -8.2626142588295413E-010
  -3.5850000000000007E-002    -7.9427217740015405E-010
  -3.5000000000000003E-002    -6.7608215179246220E-010
  -3.4150000000000000E-002    -4.8295317099924765E-010
  -3.3299999999999996E-002    -2.3603128401373911E-010
  -3.2450000000000007E-002     3.5927490984649936E-011
  -3.1600000000000003E-002     3.0001350013231220E-010
  -3.0750000000000000E-002     5.2338967903965831E-010
  -2.9899999999999996E-002     6.7775457187131038E-010
  -2.9050000000000006E-002     7.4345593716139391E-010
  -2.8200000000000003E-002     7.1265156977956627E-010
  -2.7349999999999999E-002     5.9097620128625571E-010
  -2.6499999999999996E-002     3.9730348181773824E-010
  -2.5650000000000006E-002     1.6142391434902821E-010
  -2.4800000000000003E-002    -8.0212636730285034E-011
  -2.3949999999999999E-002    -2.9016017873957008E-010
  -2.3099999999999996E-002    -4.3615911013718350E-010
  -2.2250000000000006E-002    -4.9671127043815716E-010
  -2.1400000000000002E-002    -4.6490378631308633E-010
  -2.0549999999999999E-002    -3.4959386327408949E-010
  -1.9699999999999995E-002    -1.7357217739963681E-010
  -1.8850000000000006E-002     3.1008704016915772E-011
  -1.8000000000000002E-002     2.2900251090427948E-010
  -1.7149999999999999E-002     3.8902977054545237E-010
  -1.6299999999999995E-002     4.8910358190204683E-010
  -1.5450000000000005E-002     5.1986900656282480E-010
  -1.4600000000000002E-002     4.8482253835703549E-010
  -1.3749999999999998E-002     3.9767476432811129E-010
  -1.2899999999999995E-002     2.7777005676942960E-010
  -1.2050000000000005E-002     1.4494916994121693E-010
  -1.1200000000000002E-002     1.5309546286472854E-011
  -1.0349999999999998E-002    -1.0106300115438466E-010
  -9.5000000000000084E-003    -1.9999368328758287E-010
  -8.6500000000000049E-003    -2.8114659754010657E-010
  -7.8000000000000014E-003    -3.4500628627621801E-010
  -6.9499999999999978E-003    -3.9023575883434300E-010
  -6.1000000000000082E-003    -4.1254440796367128E-010
  -5.2500000000000047E-003    -4.0566351774621179E-010
  -4.4000000000000011E-003    -3.6421522841453016E-010
  -3.5499999999999976E-003    -2.8754696405210761E-010
  -2.7000000000000079E-003    -1.8311046828658927E-010
  -1.8500000000000044E-003    -6.7981959204861212E-011
  -1.0000000000000009E-003     3.2482199772675934E-011
  -1.4999999999999736E-004     8.9016104364472677E-011
   6.9999999999999230E-004     7.5064101396425642E-011
   1.5499999999999958E-003    -2.5892006378450209E-011
   2.3999999999999994E-003    -2.1422085271436296E-010
   3.2500000000000029E-003    -4.7110306770884886E-010
   4.0999999999999925E-003    -7.5970904293234030E-010
   4.9499999999999961E-003    -1.0308047600659372E-009
   5.7999999999999996E-003    -1.2317971477140162E-009
   6.6499999999999893E-003    -1.3174574665366397E-009
   7.5000000000000067E-003    -1.2597048217507928E-009
   8.3499999999999963E-003    -1.0542708050303626E-009
   9.1999999999999860E-003    -7.2224498464102384E-010
   1.0050000000000003E-002    -3.0599363345491952E-010
   1.0899999999999993E-002     1.4007059957426678E-010
   1.1750000000000010E-002     5.6200124259306819E-010
   1.2600000000000000E-002     9.1946757892319645E-010
   1.3449999999999990E-002     1.1966616344824271E-009
   1.4300000000000007E-002     1.4085968441999958E-009
   1.5149999999999997E-002     1.6013205650610244E-009
   1.5999999999999986E-002     1.8464568318474980E-009
   1.6850000000000004E-002     2.2311729250309361E-009
   1.7699999999999994E-002     2.8468505229358383E-009
   1.8549999999999983E-002     3.7789197726174940E-009
   1.9400000000000001E-002     5.1005591063127353E-009
   2.0249999999999990E-002     6.8728032440114232E-009
   2.1100000000000008E-002     9.1492488521148680E-009
   2.1949999999999997E-002     1.1985601398114810E-008
   2.2799999999999987E-002     1.5450969157203191E-008
   2.3650000000000004E-002     1.9638209785414898E-008
   2.4499999999999994E-002     2.4670242105850650E-008
   2.5349999999999984E-002     3.0703585072104293E-008
   2.6200000000000001E-002     3.7928329566754440E-008
   2.7049999999999991E-002     4.6566186438608107E-008
   2.7900000000000008E-002     5.6870006864935982E-008
   2.8749999999999998E-002     6.9125865700195557E-008
   2.9599999999999987E-002     8.3659464372690087E-008
   3.0450000000000005E-002     1.0084651041340240E-007
   3.1299999999999994E-002     1.2112507110225465E-007
   3.2149999999999984E-002     1.4500763366950253E-007
   3.3000000000000002E-002     1.7308965796411916E-007
   3.3849999999999991E-002     2.0605453214266840E-007
   3.4700000000000009E-002     2.4466926428583885E-007
   3.5549999999999998E-002     2.8978489857352916E-007
   3.6399999999999988E-002     3.4232812815522674E-007
   3.7250000000000005E-002     4.0330255785416801E-007
   3.8099999999999995E-002     4.7379513993391266E-007
   3.8949999999999985E-002     5.5498608155162882E-007
   3.9800000000000002E-002     6.4816462205479582E-007
   4.0649999999999992E-002     7.5474732928229184E-007
   4.1500000000000009E-002     8.7629683088658634E-007
   4.2349999999999999E-002     1.0145383363883457E-006
   4.3199999999999988E-002     1.1713546429124251E-006
   4.4050000000000006E-002     1.3488059364139622E-006
   4.4899999999999995E-002     1.5491225619610924E-006
   4.5749999999999985E-002     1.7747099159738804E-006
   4.6600000000000003E-002     2.0281326643779978E-006
   4.7449999999999992E-002     2.3121500132680312E-006
   4.8299999999999982E-002     2.6296916913263758E-006
   4.9149999999999999E-002     2.9838733261941776E-006
   4.9999999999999989E-002     3.3779902749365709E-006
   5.0850000000000006E-002     3.8155112964865370E-006
   5.1699999999999996E-002     4.3000688955976724E-006
   5.2549999999999986E-002     4.8354250705858114E-006
   5.3400000000000003E-002     5.4254648827653716E-006
   5.4249999999999993E-002     6.0741180067404723E-006
   5.5099999999999982E-002     6.7853781382123897E-006
   5.5950000000000000E-002     7.5632660151887631E-006
   5.6799999999999989E-002     8.4117960755078377E-006
   5.7650000000000007E-002     9.3349591143874448E-006
   5.8499999999999996E-002     1.0336678565246075E-005
   5.9349999999999986E-002     1.1420782389465283E-005
   6.0200000000000004E-002     1.2590962444231360E-005
   6.1049999999999993E-002     1.3850680293779157E-005
   6.1899999999999983E-002     1.5203091702646688E-005
   6.2750000000000000E-002     1.6650955378736556E-005
   6.3599999999999990E-002     1.8196583121723186E-005
   6.4450000000000007E-002     1.9841664478822926E-005
   6.5299999999999997E-002     2.1587366414970914E-005
   6.6149999999999987E-002     2.3434023132435264E-005
   6.7000000000000004E-002     2.5381185989920107E-005
   6.7849999999999994E-002     2.7427564725074822E-005
   6.8699999999999983E-002     2.9570856206060180E-005
   6.9550000000000001E-002     3.1807788204801018E-005
   7.0399999999999990E-002     3.4133864647382494E-005
   7.1249999999999980E-002     3.6543382445086998E-005
   7.2099999999999997E-002     3.9029355958770796E-005
   7.2949999999999987E-002     4.1583296910102737E-005
   7.3800000000000004E-002     4.4195317352813421E-005
   7.4649999999999994E-002     4.6854069105247975E-005
   7.5499999999999984E-002     4.9546462588897021E-005
   7.6350000000000001E-002     5.2257989392136617E-005
   7.7199999999999991E-002     5.4972544930449365E-005
   7.8049999999999981E-002     5.7672349819790444E-005
   7.8899999999999998E-002     6.0338071197084121E-005
   7.9749999999999988E-002     6.2948681350852401E-005
   8.0600000000000005E-002     6.5481739011093631E-005
   8.1449999999999995E-002     6.7913169871501263E-005
   8.2299999999999984E-002     7.0217833996523503E-005
   8.3150000000000002E-002     7.2368860791929823E-005
   8.3999999999999991E-002     7.4338573041444719E-005
   8.4849999999999981E-002     7.6098175969755479E-005
   8.5699999999999998E-002     7.7618535573167142E-005
   8.6549999999999988E-002     7.8869947710086318E-005
   8.7400000000000005E-002     7.9822220846013971E-005
   8.8249999999999995E-002     8.0445694597824522E-005
   8.9099999999999985E-002     8.0710640761924793E-005
   8.9950000000000002E-002     8.0588056615273472E-005
   9.0799999999999992E-002     8.0049681194175942E-005
   9.1649999999999981E-002     7.9068790049857061E-005
   9.2499999999999999E-002     7.7619882178755857E-005
   9.3349999999999989E-002     7.5679526505353060E-005
   9.4200000000000006E-002     7.3226344238784186E-005
   9.5049999999999996E-002     7.0241764127403991E-005
   9.5899999999999985E-002     6.6709917337676741E-005
   9.6750000000000003E-002     6.2618527208808012E-005
   9.7599999999999992E-002     5.7958545737973641E-005
   9.8449999999999982E-002     5.2725218846283456E-005
   9.9299999999999999E-002     4.6918014573202644E-005
  0.10014999999999999          4.0540090661421094E-005
  0.10099999999999998          3.3599950837305208E-005
  0.10185000000000000          2.6110183468617922E-005
  0.10269999999999999          1.8088614397292686E-005
  0.10355000000000000          9.5581979237720600E-006
  0.10439999999999999          5.4683630913590717E-007
  0.10524999999999998         -8.9120039807069845E-006
  0.10610000000000000         -1.8780627316635256E-005
  0.10694999999999999         -2.9016093310218542E-005
  0.10779999999999998         -3.9570482870961507E-005
  0.10865000000000000         -5.0391571316541614E-005
  0.10949999999999999         -6.1423041222044249E-005
  0.11035000000000000         -7.2604566317919464E-005
  0.11119999999999999         -8.3872458330194353E-005
  0.11204999999999998         -9.5159641394005495E-005
  0.11290000000000000         -1.0639715725099233E-004
  0.11374999999999999         -1.1751333158821664E-004
  0.11459999999999998         -1.2843544012922079E-004
  0.11545000000000000         -1.3908946791735491E-004
  0.11629999999999999         -1.4940110578981261E-004
  0.11715000000000000         -1.5929657045518094E-004
  0.11799999999999999         -1.6870296049961272E-004
  0.11884999999999998         -1.7754919142268485E-004
  0.11970000000000000         -1.8576646670226491E-004
  0.12054999999999999         -1.9328893925706978E-004
  0.12139999999999998         -2.0005441854624158E-004
  0.12225000000000000         -2.0600516469090234E-004
  0.12309999999999999         -2.1108815994851668E-004
  0.12395000000000000         -2.1525581673160715E-004
  0.12479999999999999         -2.1846659858866093E-004
  0.12564999999999998         -2.2068494058811357E-004
  0.12650000000000000         -2.2188240901876901E-004
  0.12734999999999999         -2.2203769696135838E-004
  0.12819999999999998         -2.2113670239113921E-004
  0.12905000000000000         -2.1917315995311371E-004
  0.12989999999999999         -2.1614861805050058E-004
  0.13074999999999998         -2.1207219471442031E-004
  0.13159999999999999         -2.0696126846166447E-004
  0.13245000000000001         -2.0084052714689938E-004
  0.13329999999999997         -1.9374212680243528E-004
  0.13414999999999999         -1.8570567465994668E-004
  0.13500000000000001         -1.7677757884140992E-004
  0.13584999999999997         -1.6701066318106211E-004
  0.13669999999999999         -1.5646441050199897E-004
  0.13755000000000001         -1.4520347159208041E-004
  0.13839999999999997         -1.3329752708970066E-004
  0.13924999999999998         -1.2082142913626949E-004
  0.14010000000000000         -1.0785284087565930E-004
  0.14094999999999996         -9.4473211606282276E-005
  0.14179999999999998         -8.0766340532533032E-005
  0.14265000000000000         -6.6817600329914626E-005
  0.14350000000000002         -5.2713080313815001E-005
  0.14434999999999998         -3.8539532365913957E-005
  0.14520000000000000         -2.4382849766874832E-005
  0.14605000000000001         -1.0327490970577695E-005
  0.14689999999999998          3.5438069735900724E-006
  0.14774999999999999          1.7151357500351410E-005
  0.14860000000000001          3.0417918575013637E-005
  0.14944999999999997          4.3270567666013802E-005
  0.15029999999999999          5.5641042103330674E-005
  0.15115000000000001          6.7465805378123233E-005
  0.15199999999999997          7.8686178619843619E-005
  0.15284999999999999          8.9249804141181729E-005
  0.15370000000000000          9.9109933742665655E-005
  0.15454999999999997          1.0822637732527277E-004
  0.15539999999999998          1.1656524582824138E-004
  0.15625000000000000          1.2409938254165557E-004
  0.15709999999999996          1.3080788081273954E-004
  0.15794999999999998          1.3667691230126352E-004
  0.15880000000000000          1.4169881205089126E-004
  0.15965000000000001          1.4587241819677012E-004
  0.16049999999999998          1.4920263874786363E-004
  0.16134999999999999          1.5170046534910167E-004
  0.16220000000000001          1.5338238722224152E-004
  0.16304999999999997          1.5427019032142542E-004
  0.16389999999999999          1.5439068383171778E-004
  0.16475000000000001          1.5377501340750838E-004
  0.16559999999999997          1.5245852280725613E-004
  0.16644999999999999          1.5047981514453739E-004
  0.16730000000000000          1.4788081019807505E-004
  0.16814999999999997          1.4470594658427531E-004
  0.16899999999999998          1.4100174258716242E-004
  0.16985000000000000          1.3681636953477661E-004
  0.17069999999999996          1.3219926462541677E-004
  0.17154999999999998          1.2720031623145557E-004
  0.17240000000000000          1.2186993147833642E-004
  0.17325000000000002          1.1625817515713364E-004
  0.17409999999999998          1.1041454640147680E-004
  0.17494999999999999          1.0438757015388290E-004
  0.17580000000000001          9.8224283229054996E-005
  0.17664999999999997          9.1970018090543402E-005
  0.17749999999999999          8.5668156878013422E-005
  0.17835000000000001          7.9359795977009277E-005
  0.17919999999999997          7.3083435190241216E-005
  0.18004999999999999          6.6875092152460859E-005
  0.18090000000000001          6.0767900279312833E-005
  0.18174999999999997          5.4792278842921883E-005
  0.18259999999999998          4.8975541041378851E-005
  0.18345000000000000          4.3342058506789514E-005
  0.18429999999999996          3.7913272938485453E-005
  0.18514999999999998          3.2707542857660527E-005
  0.18600000000000000          2.7740280396055619E-005
  0.18684999999999996          2.3024097769499624E-005
  0.18769999999999998          1.8568736267375547E-005
  0.18855000000000000          1.4381291341792098E-005
  0.18940000000000001          1.0466462867396061E-005
  0.19024999999999997          6.8264871518652766E-006
  0.19109999999999999          3.4614900686043171E-006
  0.19195000000000001          3.6961972948259842E-007
  0.19279999999999997         -2.4529422441784294E-006
  0.19364999999999999         -5.0114362126679080E-006
  0.19450000000000001         -7.3128440529380295E-006
  0.19534999999999997         -9.3653156241832995E-006
  0.19619999999999999         -1.1178259537026526E-005
  0.19705000000000000         -1.2762051762710137E-005
  0.19789999999999996         -1.4127915321431689E-005
  0.19874999999999998         -1.5287692471694197E-005
  0.19960000000000000         -1.6253596063993473E-005
  0.20044999999999996         -1.7038302327998867E-005
  0.20129999999999998         -1.7654593305681129E-005
  0.20215000000000000         -1.8115289021666350E-005
  0.20300000000000001         -1.8433089770539311E-005
  0.20384999999999998         -1.8620638572961871E-005
  0.20469999999999999         -1.8690222298252786E-005
  0.20555000000000001         -1.8653877687537119E-005
  0.20639999999999997         -1.8523223592407043E-005
  0.20724999999999999         -1.8309429327237309E-005
  0.20810000000000001         -1.8023234443393613E-005
  0.20894999999999997         -1.7674763450645622E-005
  0.20979999999999999         -1.7273565559769619E-005
  0.21065000000000000         -1.6828577640010889E-005
  0.21149999999999997         -1.6348091271640558E-005
  0.21234999999999998         -1.5839749505803845E-005
  0.21320000000000000         -1.5310517722522518E-005
  0.21404999999999996         -1.4766779393989849E-005
  0.21489999999999998         -1.4214308035121427E-005
  0.21575000000000000         -1.3658297686644582E-005
  0.21659999999999996         -1.3103347228819238E-005
  0.21744999999999998         -1.2553492643599658E-005
  0.21829999999999999         -1.2012208616865200E-005
  0.21915000000000001         -1.1482426752937028E-005
  0.21999999999999997         -1.0966562744937251E-005
  0.22084999999999999         -1.0466493700188142E-005
  0.22170000000000001         -9.9836645013306720E-006
  0.22254999999999997         -9.5190518431501035E-006
  0.22339999999999999         -9.0732960170116512E-006
  0.22425000000000000         -8.6467714817273008E-006
  0.22509999999999997         -8.2396339545300597E-006
  0.22594999999999998         -7.8518376533983385E-006
  0.22680000000000000         -7.4831745293819941E-006
  0.22764999999999996         -7.1333078301594453E-006
  0.22849999999999998         -6.8017768887005977E-006
  0.22935000000000000         -6.4880271571832773E-006
  0.23019999999999996         -6.1913387323859385E-006
  0.23104999999999998         -5.9108831613768761E-006
  0.23190000000000000         -5.6457624974662773E-006
  0.23275000000000001         -5.3950047469256707E-006
  0.23359999999999997         -5.1576440680872958E-006
  0.23444999999999999         -4.9327337157390047E-006
  0.23530000000000001         -4.7193719154517480E-006
  0.23614999999999997         -4.5167458162689377E-006
  0.23699999999999999         -4.3241392264475667E-006
  0.23785000000000001         -4.1409610353725040E-006
  0.23869999999999997         -3.9666879330195188E-006
  0.23954999999999999         -3.8008795791000600E-006
  0.24040000000000000         -3.6431205057290989E-006
  0.24124999999999996         -3.4930063071023635E-006
  0.24209999999999998         -3.3501569678846149E-006
  0.24295000000000000         -3.2142027947530202E-006
  0.24379999999999996         -3.0847361744232713E-006
  0.24464999999999998         -2.9613918020786231E-006
  0.24550000000000000         -2.8438104788139583E-006
  0.24634999999999996         -2.7317011333586336E-006
  0.24719999999999998         -2.6247859643502114E-006
  0.24804999999999999         -2.5228391535187719E-006
  0.24890000000000001         -2.4256551798801351E-006
  0.24974999999999997         -2.3330178301807789E-006
  0.25059999999999999         -2.2447166242505291E-006
  0.25145000000000001         -2.1605070006404161E-006
  0.25229999999999997         -2.0800949417316662E-006
  0.25314999999999999         -2.0031633363090465E-006
  0.25400000000000000         -1.9293893419985857E-006
  0.25484999999999997         -1.8584252350799781E-006
  0.25569999999999998         -1.7899564066127450E-006
  0.25655000000000000         -1.7236840037846928E-006
  0.25739999999999996         -1.6593772904244589E-006
  0.25824999999999998         -1.5968301850847048E-006
  0.25910000000000000         -1.5359050696916649E-006
  0.25994999999999996         -1.4765098304274823E-006
  0.26079999999999998         -1.4186041338626162E-006
  0.26164999999999999         -1.3621671524891883E-006
  0.26249999999999996         -1.3072275253918609E-006
  0.26334999999999997         -1.2538450134967212E-006
  0.26419999999999999         -1.2021356842987716E-006
  0.26505000000000001         -1.1522413048406472E-006
  0.26589999999999997         -1.1043630219847605E-006
  0.26674999999999999         -1.0587295260988160E-006
  0.26760000000000000         -1.0155898255858875E-006
  0.26844999999999997         -9.7522191657370630E-007
  0.26929999999999998         -9.3787928891745631E-007
  0.27015000000000000         -9.0383214888348064E-007
  0.27099999999999996         -8.7329436433729875E-007
  0.27184999999999998         -8.4647833500661272E-007
  0.27270000000000000         -8.2354896709145287E-007
  0.27354999999999996         -8.0461949054951989E-007
  0.27439999999999998         -7.8975716419569498E-007
  0.27524999999999999         -7.7896381505998582E-007
  0.27609999999999996         -7.7215180075969205E-007
  0.27694999999999997         -7.6915746627501747E-007
  0.27779999999999999         -7.6972107511487759E-007
  0.27865000000000001         -7.7348579702083947E-007
  0.27949999999999997         -7.8000988100675689E-007
  0.28034999999999999         -7.8879128231659805E-007
  0.28120000000000001         -7.9928077420336017E-007
  0.28204999999999997         -8.1091652917539476E-007
  0.28289999999999998         -8.2313207554046334E-007
  0.28375000000000000         -8.3538474654584287E-007
  0.28459999999999996         -8.4715189026281387E-007
  0.28544999999999998         -8.5792671044979989E-007
  0.28630000000000000         -8.6720531576429270E-007
  0.28714999999999996         -8.7449233996578687E-007
  0.28799999999999998         -8.7929296432903173E-007
  0.28885000000000000         -8.8113153811318348E-007
  0.28969999999999996         -8.7956327611919468E-007
  0.29054999999999997         -8.7422138497177389E-007
  0.29139999999999999         -8.6484427650501423E-007
  0.29224999999999995         -8.5129593036285839E-007
  0.29309999999999997         -8.3359496844573342E-007
  0.29394999999999999         -8.1190784715724044E-007
  0.29480000000000001         -7.8653155340302221E-007
  0.29564999999999997         -7.5784513291606867E-007
  0.29649999999999999         -7.2629113463635633E-007
  0.29735000000000000         -6.9233313742826404E-007
  0.29819999999999997         -6.5642554686785429E-007
  0.29904999999999998         -6.1901153802896795E-007
  0.29990000000000000         -5.8052273118801269E-007
  0.30074999999999996         -5.4141420429596578E-007
  0.30159999999999998         -5.0214994362368056E-007
  0.30245000000000000         -4.6322572844693038E-007
  0.30329999999999996         -4.2516660617034146E-007
  0.30414999999999998         -3.8848827016839426E-007
  0.30499999999999999         -3.5366918442322289E-007
  0.30584999999999996         -3.2110878373384026E-007
  0.30669999999999997         -2.9107989588109688E-007
  0.30754999999999999         -2.6373371318958293E-007
  0.30840000000000001         -2.3907860366874274E-007
  0.30924999999999997         -2.1700649452573868E-007
  0.31009999999999999         -1.9733905634576471E-007
  0.31095000000000000         -1.7986199243001311E-007
  0.31179999999999997         -1.6437793974028608E-007
  0.31264999999999998         -1.5070674082983102E-007
  0.31350000000000000         -1.3871019458981526E-007
  0.31434999999999996         -1.2827624857932967E-007
  0.31519999999999998         -1.1928958185629445E-007
  0.31605000000000000         -1.1161752497212508E-007
  0.31689999999999996         -1.0508984553758742E-007
  0.31774999999999998         -9.9508446880963628E-008
  0.31859999999999999         -9.4657129147131783E-008
  0.31944999999999996         -9.0334053520214391E-008
  0.32029999999999997         -8.6393666133707756E-008
  0.32114999999999999         -8.2771897115908907E-008
  0.32199999999999995         -7.9505535025879111E-008
  0.32284999999999997         -7.6730457342145661E-008
  0.32369999999999999         -7.4659490228258185E-008
  0.32455000000000001         -7.3559511836612885E-008
  0.32539999999999997         -7.3714519748854759E-008
  0.32624999999999998         -7.5386463384569498E-008
  0.32710000000000000         -7.8809525573534267E-008
  0.32794999999999996         -8.4173597120888400E-008
  0.32879999999999998         -9.1637598864364552E-008
  0.32965000000000000         -1.0132694283785409E-007
  0.33049999999999996         -1.1335331316394780E-007
  0.33134999999999998         -1.2780982372486642E-007
  0.33220000000000000         -1.4476395746782084E-007
  0.33304999999999996         -1.6423525642835016E-007
  0.33389999999999997         -1.8617308221923139E-007
  0.33474999999999999         -2.1042721111281648E-007
  0.33559999999999995         -2.3673398569355590E-007
  0.33644999999999997         -2.6470813487141278E-007
  0.33729999999999999         -2.9385722789159324E-007
  0.33815000000000001         -3.2361223824522148E-007
  0.33899999999999997         -3.5334804609267666E-007
  0.33984999999999999         -3.8242229418277088E-007
  0.34070000000000000         -4.1020764344020270E-007
  0.34154999999999996         -4.3610301392612684E-007
  0.34239999999999998         -4.5954410727347371E-007