 -0.12000000000000000          0.0000000000000000
 -0.11914999999999999          0.0000000000000000
 -0.11830000000000000         -6.5548700930238604E-012
 -0.11745000000000000         -1.6907563428605051E-011
 -0.11660000000000000         -3.6260209123965827E-012
 -0.11574999999999999          7.7904983501696426E-011
 -0.11490000000000000          2.5403125837462838E-010
 -0.11405000000000000          4.9140089003147506E-010
 -0.11320000000000000          6.8575879104980253E-010
 -0.11234999999999999          7.0293511964492469E-010
 -0.11150000000000000          4.5690096910457205E-010
 -0.11065000000000000         -2.4552621146971787E-011
 -0.10979999999999999         -5.9887065911634370E-010
 -0.10894999999999999         -1.0872658026801916E-009
 -0.10810000000000000         -1.3906082145939081E-009
 -0.10725000000000000         -1.5653507162408559E-009
 -0.10639999999999999         -1.8005076996284926E-009
 -0.10554999999999999         -2.3042667827572747E-009
 -0.10470000000000000         -3.1795478992705756E-009
 -0.10385000000000000         -4.3818145742402867E-009
 -0.10299999999999999         -5.7817775531836622E-009
 -0.10214999999999999         -7.2384444930947246E-009
 -0.10130000000000000         -8.5209962365294170E-009
 -0.10045000000000000         -8.9959992405678701E-009
  -9.9599999999999994E-002    -7.2306748129992964E-009
  -9.8750000000000004E-002    -9.3139887350962853E-010
  -9.7900000000000001E-002     1.2284533803828103E-008
  -9.7049999999999997E-002     3.3096685570558148E-008
  -9.6199999999999994E-002     5.8186800989714634E-008
  -9.5349999999999990E-002     7.8773359900448346E-008
  -9.4500000000000001E-002     8.1691324696213858E-008
  -9.3649999999999997E-002     5.4159322258183642E-008
  -9.2799999999999994E-002    -8.3255483870770296E-009
  -9.1950000000000004E-002    -9.3878700891861359E-008
  -9.1100000000000000E-002    -1.7069228815263882E-007
  -9.0249999999999997E-002    -1.9285885599215364E-007
  -8.9399999999999993E-002    -1.1753295604383533E-007
  -8.8549999999999990E-002     6.9952987750333757E-008
  -8.7700000000000000E-002     3.3249815340653988E-007
  -8.6849999999999997E-002     5.7246932697116873E-007
  -8.5999999999999993E-002     6.4958641231882695E-007
  -8.5150000000000003E-002     4.2904492642278597E-007
  -8.4300000000000000E-002    -1.5010207325381708E-007
  -8.3449999999999996E-002    -1.0103932499291766E-006
  -8.2600000000000007E-002    -1.9074003713723547E-006
  -8.1749999999999989E-002    -2.4651338410746513E-006
  -8.0900000000000000E-002    -2.2846417887118949E-006
  -8.0049999999999996E-002    -1.1055341856199346E-006
  -7.9199999999999993E-002     1.0302895719951164E-006
  -7.8350000000000003E-002     3.6813035651452568E-006
  -7.7499999999999999E-002     6.0378145714833132E-006
  -7.6649999999999996E-002     7.1099106546950924E-006
  -7.5800000000000006E-002     6.0434404918212510E-006
  -7.4949999999999989E-002     2.4761058404193066E-006
  -7.4099999999999999E-002    -3.1931441235975132E-006
  -7.3249999999999996E-002    -9.7452204744724418E-006
  -7.2399999999999992E-002    -1.5363271200577527E-005
  -7.1550000000000002E-002    -1.8114292390214450E-005
  -7.0699999999999999E-002    -1.6564140225926827E-005
  -6.9849999999999995E-002    -1.0326109329831022E-005
  -6.9000000000000006E-002    -3.3220139468905595E-007
  -6.8149999999999988E-002     1.1314163922445476E-005
  -6.7299999999999999E-002     2.1909106425551487E-005
  -6.6449999999999995E-002     2.8986963838963045E-005
  -6.5599999999999992E-002     3.1146755375090362E-005
  -6.4750000000000002E-002     2.8551378017205976E-005
  -6.3899999999999998E-002     2.2867051706252632E-005
  -6.3049999999999995E-002     1.6598259944002635E-005
  -6.2199999999999998E-002     1.2005168104454603E-005
  -6.1350000000000002E-002     9.9821661695995717E-006
  -6.0499999999999998E-002     9.3474183780190346E-006
  -5.9650000000000002E-002     6.9030677491230551E-006
  -5.8799999999999998E-002    -1.6253050906341109E-006
  -5.7950000000000002E-002    -1.9978323563810698E-005
  -5.7099999999999998E-002    -4.9582491599133736E-005
  -5.6249999999999994E-002    -8.8231418994890584E-005
  -5.5400000000000005E-002    -1.2977969053133045E-004
  -5.4550000000000001E-002    -1.6509905115480198E-004
  -5.3699999999999998E-002    -1.8412530618106652E-004
  -5.2849999999999994E-002    -1.7841939262946909E-004
  -5.2000000000000005E-002    -1.4343226744058046E-004
  -5.1150000000000001E-002    -7.9710460944692294E-005
  -5.0299999999999997E-002     7.4102466471980661E-006
  -4.9449999999999994E-002     1.0955329631017954E-004
  -4.8600000000000004E-002     2.1795130545188219E-004
  -4.7750000000000001E-002     3.2605144864585912E-004
  -4.6899999999999997E-002     4.3122053884708182E-004
  -4.6049999999999994E-002     5.3487589952680556E-004
  -4.5200000000000004E-002     6.4110531759473967E-004
  -4.4350000000000001E-002     7.5424257180511695E-004
  -4.3499999999999997E-002     8.7639955039787781E-004
  -4.2649999999999993E-002     1.0060088895245205E-003
  -4.1800000000000004E-002     1.1381374461907337E-003
  -4.0950000000000000E-002     1.2664720752295733E-003
  -4.0099999999999997E-002     1.3865686564607039E-003
  -3.9249999999999993E-002     1.4990641322085185E-003
  -3.8400000000000004E-002     1.6119054715302600E-003
  -3.7550000000000000E-002     1.7405946707290116E-003
  -3.6699999999999997E-002     1.9060675913784094E-003
  -3.5850000000000007E-002     2.1313622713329226E-003
  -3.5000000000000003E-002     2.4373974406718254E-003
  -3.4150000000000000E-002     2.8403726522109925E-003
  -3.3299999999999996E-002     3.3505107417015840E-003
  -3.2450000000000007E-002     3.9731875423696938E-003
  -3.1600000000000003E-002     4.7122524486590094E-003
  -3.0750000000000000E-002     5.5735305059052050E-003
  -2.9899999999999996E-002     6.5675917905339311E-003
  -2.9050000000000006E-002     7.7109427958994489E-003
  -2.8200000000000003E-002     9.0251851768253146E-003
  -2.7349999999999999E-002     1.0534611080043586E-002
  -2.6499999999999996E-002     1.2263389878311538E-002
  -2.5650000000000006E-002     1.4233923198242699E-002
  -2.4800000000000003E-002     1.6466689238998775E-002
  -2.3949999999999999E-002     1.8981981936665573E-002
  -2.3099999999999996E-002     2.1803675562867261E-002
  -2.2250000000000006E-002     2.4961110455511887E-002
  -2.1400000000000002E-002     2.8493027296585927E-002
  -2.0549999999999999E-002     3.2443912754212961E-002
  -1.9699999999999995E-002     3.6864774661687784E-002
  -1.8850000000000006E-002     4.1807157651269355E-002
  -1.8000000000000002E-002     4.7321123795774842E-002
  -1.7149999999999999E-002     5.3454885604520927E-002
  -1.6299999999999995E-002     6.0250818354597030E-002
  -1.5450000000000005E-002     6.7757563142951824E-002
  -1.4600000000000002E-002     7.6028035615642475E-002
  -1.3749999999999998E-002     8.5124956760596338E-002
  -1.2899999999999995E-002     9.5121537551465712E-002
  -1.2050000000000005E-002    0.10609810546730306
  -1.1200000000000002E-002    0.11813290540746972
  -1.0349999999999998E-002    0.13129669250056919
  -9.5000000000000084E-003    0.14564182105305001
  -8.6500000000000049E-003    0.16120295391721406
  -7.8000000000000014E-003    0.17799766025075581
  -6.9499999999999978E-003    0.19602791500875899
  -6.1000000000000082E-003    0.21530403526350361
  -5.2500000000000047E-003    0.23583118523217345
  -4.4000000000000011E-003    0.25762602823517522
  -3.5499999999999976E-003    0.28071568471760933
  -2.7000000000000079E-003    0.30509751137998808
  -1.8500000000000044E-003    0.33076896332524586
  -1.0000000000000009E-003    0.35767493613041357
  -1.4999999999999736E-004    0.38571767311671290
   6.9999999999999230E-004    0.41474466775286245
   1.5499999999999958E-003    0.44455858457003816
   2.3999999999999994E-003    0.47494848335776707
   3.2500000000000029E-003    0.50566378306494253
   4.0999999999999925E-003    0.53646690854997736
   4.9499999999999961E-003    0.56712049171166490
   5.7999999999999996E-003    0.59736924568921435
   6.6499999999999893E-003    0.62692224191597801
   7.5000000000000067E-003    0.65543785454122605
   8.3499999999999963E-003    0.68251370318960369
   9.1999999999999860E-003    0.70769009283045237
   1.0050000000000003E-002    0.73041264588445309
   1.0899999999999993E-002    0.75007318598913875
   1.1750000000000010E-002    0.76606101626087453
   1.2600000000000000E-002    0.77757862578545756
   1.3449999999999990E-002    0.78406008968489183
   1.4300000000000007E-002    0.78477917921545515
   1.5149999999999997E-002    0.77902313556053338
   1.5999999999999986E-002    0.76621994131350846
   1.6850000000000004E-002    0.74567648737737047
   1.7699999999999994E-002    0.71661936854411523
   1.8549999999999983E-002    0.67840115701248493
   1.9400000000000001E-002    0.63028174885967114
   2.0249999999999990E-002    0.57163532897270775
   2.1100000000000008E-002    0.50170436571390675
   2.1949999999999997E-002    0.41996728623443141
   2.2799999999999987E-002    0.32605791698382591
   2.3650000000000004E-002    0.21942658548914060
   2.4499999999999994E-002     9.9893307661777911E-002
   2.5349999999999984E-002    -3.2646926097031959E-002
   2.6200000000000001E-002   -0.17817056720778190
   2.7049999999999991E-002   -0.33659152634945322
   2.7900000000000008E-002   -0.50779580330960850
   2.8749999999999998E-002   -0.69138496434553576
   2.9599999999999987E-002   -0.88685670645515047
   3.0450000000000005E-002    -1.0933381992938012
   3.1299999999999994E-002    -1.3098345420728559
   3.2149999999999984E-002    -1.5351752848197759
   3.3000000000000002E-002    -1.7681299017423029
   3.3849999999999991E-002    -2.0068627914834987
   3.4700000000000009E-002    -2.2496296464765431
   3.5549999999999998E-002    -2.4944901340484842
   3.6399999999999988E-002    -2.7394163534341507
   3.7250000000000005E-002    -2.9819780914033842
   3.8099999999999995E-002    -3.2199105786891122
   3.8949999999999985E-002    -3.4504848817082410
   3.9800000000000002E-002    -3.6706769712576346
   4.0649999999999992E-002    -3.8781203996103093
   4.1500000000000009E-002    -4.0692995602002719
   4.2349999999999999E-002    -4.2415349090884078
   4.3199999999999988E-002    -4.3917981404515229
   4.4050000000000006E-002    -4.5168629809710330
   4.4899999999999995E-002    -4.6139659240711426
   4.5749999999999985E-002    -4.6802562177883731
   4.6600000000000003E-002    -4.7131181865470975
   4.7449999999999992E-002    -4.7104029992733194
   4.8299999999999982E-002    -4.6699106730897411
   4.9149999999999999E-002    -4.5898112945403939
   4.9999999999999989E-002    -4.4687761713994680
   5.0850000000000006E-002    -4.3053078482027702
   5.1699999999999996E-002    -4.0988102045700021
   5.2549999999999986E-002    -3.8485775160462534
   5.3400000000000003E-002    -3.5543401252147131
   5.4249999999999993E-002    -3.2168273964887848
   5.5099999999999982E-002    -2.8369320562714462
   5.5950000000000000E-002    -2.4165411529252721
   5.6799999999999989E-002    -1.9576421040139595
   5.7650000000000007E-002    -1.4629430511907393
   5.8499999999999996E-002   -0.93588246179638024
   5.9349999999999986E-002   -0.37974540336161466
   6.0200000000000004E-002    0.20147108218554849
   6.1049999999999993E-002    0.80359984119804906
   6.1899999999999983E-002     1.4218859236789299
   6.2750000000000000E-002     2.0510432404393084
   6.3599999999999990E-002     2.6855383892505382
   6.4450000000000007E-002     3.3198981795802700
   6.5299999999999997E-002     3.9477648378883101
   6.6149999999999987E-002     4.5631451922668553
   6.7000000000000004E-002     5.1596859597562617
   6.7849999999999994E-002     5.7314013925660534
   6.8699999999999983E-002     6.2722494489479343
   6.9550000000000001E-002     6.7766795410563772
   7.0399999999999990E-002     7.2392245669257802
   7.1249999999999980E-002     7.6548311752682814
   7.2099999999999997E-002     8.0186884924395834
   7.2949999999999987E-002     8.3262933179804346
   7.3800000000000004E-002     8.5738471830612379
   7.4649999999999994E-002     8.7577856235741436
   7.5499999999999984E-002     8.8753330520276599
   7.6350000000000001E-002     8.9248152854117819
   7.7199999999999991E-002     8.9044280408988588
   7.8049999999999981E-002     8.8145159880150228
   7.8899999999999998E-002     8.6550121870751049
   7.9749999999999988E-002     8.4272894922121697
   8.0600000000000005E-002     8.1328222435886630
   8.1449999999999995E-002     7.7739791302695869
   8.2299999999999984E-002     7.3534153117585568
   8.3150000000000002E-002     6.8751770536130028
   8.3999999999999991E-002     6.3430926214275578
   8.4849999999999981E-002     5.7622927307283618
   8.5699999999999998E-002     5.1383243000570733
   8.6549999999999988E-002     4.4774855222052219
   8.7400000000000005E-002     3.7856943051653924
   8.8249999999999995E-002     3.0700311201979300
   8.9099999999999985E-002     2.3367432947224049
   8.9950000000000002E-002     1.5933691446750369
   9.0799999999999992E-002    0.84625634366444358
   9.1649999999999981E-002    0.10226959770538741
   9.2499999999999999E-002   -0.63217879128532317
   9.3349999999999989E-002    -1.3507327838432686
   9.4200000000000006E-002    -2.0459215838051152
   9.5049999999999996E-002    -2.7126521883985566
   9.5899999999999985E-002    -3.3446184025903136
   9.6750000000000003E-002    -3.9375796706956705
   9.7599999999999992E-002    -4.4859160815920900
   9.8449999999999982E-002    -4.9864082660830613
   9.9299999999999999E-002    -5.4354192953437588
  0.10014999999999999         -5.8307130923742694
  0.10099999999999998         -6.1698977035869067
  0.10185000000000000         -6.4513765406186572
  0.10269999999999999         -6.6746725581275070
  0.10355000000000000         -6.8394713696822853
  0.10439999999999999         -6.9461130332446297
  0.10524999999999998         -6.9952591675967843
  0.10610000000000000         -6.9887210904145158
  0.10694999999999999         -6.9286761934286432
  0.10779999999999998         -6.8177214558595098
  0.10865000000000000         -6.6586816205142823
  0.10949999999999999         -6.4552363080691713
  0.11035000000000000         -6.2110967020501251
  0.11119999999999999         -5.9302009054890634
  0.11204999999999998         -5.6169655373899019
  0.11290000000000000         -5.2753378533560618
  0.11374999999999999         -4.9099573570902253
  0.11459999999999998         -4.5251698487367271
  0.11545000000000000         -4.1255366014635042
  0.11629999999999999         -3.7155346509605467
  0.11715000000000000         -3.2992865704702656
  0.11799999999999999         -2.8809175941498397
  0.11884999999999998         -2.4643722002669950
  0.11970000000000000         -2.0531113855033638
  0.12054999999999999         -1.6507118682173652
  0.12139999999999998         -1.2601609338214155
  0.12225000000000000        -0.88426603355922317
  0.12309999999999999        -0.52560409053028112
  0.12395000000000000        -0.18622694628472816
  0.12479999999999999         0.13195726123552529
  0.12564999999999998         0.42750613961823913
  0.12650000000000000         0.69940142951667350
  0.12734999999999999         0.94688815087565792
  0.12819999999999998          1.1695425582127412
  0.12905000000000000          1.3671851884188631
  0.12989999999999999          1.5398773464287574
  0.13074999999999998          1.6877282987373636
  0.13159999999999999          1.8113483039700684
  0.13245000000000001          1.9113163434301341
  0.13329999999999997          1.9886308201259080
  0.13414999999999999          2.0444901456111855
  0.13500000000000001          2.0801814400712311
  0.13584999999999997          2.0970321425196214
  0.13669999999999999          2.0966636926227240
  0.13755000000000001          2.0805566638137880
  0.13839999999999997          2.0501962859062854
  0.13924999999999998          2.0070554949392014
  0.14010000000000000          1.9524269152244982
  0.14094999999999996          1.8877997996645637
  0.14179999999999998          1.8146180049397562
  0.14265000000000000          1.7344456869157368
  0.14350000000000002          1.6487986070239720
  0.14434999999999998          1.5590558089194204
  0.14520000000000000          1.4664177328415287
  0.14605000000000001          1.3720482751480299
  0.14689999999999998          1.2768818620255060
  0.14774999999999999          1.1817437300172284
  0.14860000000000001          1.0874661158844823
  0.14944999999999997         0.99462800105136384
  0.15029999999999999         0.90397600039500681
  0.15115000000000001         0.81608750029165267
  0.15199999999999997         0.73155651391267595
  0.15284999999999999         0.65094372099196551
  0.15370000000000000         0.57462711769774455
  0.15454999999999997         0.50268690070606104
  0.15539999999999998         0.43524121141361866
  0.15625000000000000         0.37224182989755561
  0.15709999999999996         0.31370274445534496
  0.15794999999999998         0.25954726663548622
  0.15880000000000000         0.20978094720635906
  0.15965000000000001         0.16445650127847067
  0.16049999999999998         0.12351245819233840
  0.16134999999999999          8.6858380680727779E-002
  0.16220000000000001          5.4188503251455085E-002
  0.16304999999999997          2.5229298885260626E-002
  0.16389999999999999         -3.1723824958602900E-004
  0.16475000000000001         -2.2786421926303556E-002
  0.16559999999999997         -4.2352323771299369E-002
  0.16644999999999999         -5.9148833713617593E-002
  0.16730000000000000         -7.3249996994924280E-002
  0.16814999999999997         -8.4702998918877892E-002
  0.16899999999999998         -9.3659265788784057E-002
  0.16985000000000000        -0.10031386784495309
  0.17069999999999996        -0.10506776390654388
  0.17154999999999998        -0.10836051831670565
  0.17240000000000000        -0.11064053373182044
  0.17325000000000002        -0.11218742040415113
  0.17409999999999998        -0.11317454288146626
  0.17494999999999999        -0.11351902800607558
  0.17580000000000001        -0.11304156819135136
  0.17664999999999997        -0.11154702526698138
  0.17749999999999999        -0.10894738458944409
  0.17835000000000001        -0.10538147408944969
  0.17919999999999997        -0.10108009614591726
  0.18004999999999999         -9.6465474751021046E-002
  0.18090000000000001         -9.1926236350589510E-002
  0.18174999999999997         -8.7824685953980991E-002
  0.18259999999999998         -8.4251377683540893E-002
  0.18345000000000000         -8.1155997430419638E-002
  0.18429999999999996         -7.8235607563959461E-002
  0.18514999999999998         -7.5145771089134325E-002
  0.18600000000000000         -7.1660654667186199E-002
  0.18684999999999996         -6.7713270997659419E-002
  0.18769999999999998         -6.3411894771772018E-002
  0.18855000000000000         -5.9039431382524529E-002
  0.18940000000000001         -5.4943245217181400E-002
  0.19024999999999997         -5.1404754269946430E-002
  0.19109999999999999         -4.8534377358089603E-002
  0.19195000000000001         -4.6263438365011872E-002
  0.19279999999999997         -4.4372295726574688E-002
  0.19364999999999999         -4.2608248117204199E-002
  0.19450000000000001         -4.0717041075034918E-002
  0.19534999999999997         -3.8583532339305011E-002
  0.19619999999999999         -3.6252730911763481E-002
  0.19705000000000000         -3.3840034032669664E-002
  0.19789999999999996         -3.1557084175243444E-002
  0.19874999999999998         -2.9538348710945454E-002
  0.19960000000000000         -2.7851237211549123E-002
  0.20044999999999996         -2.6407800637295403E-002
  0.20129999999999998         -2.5092722421465270E-002
  0.20215000000000000         -2.3759592428300093E-002
  0.20300000000000001         -2.2347442582337854E-002
  0.20384999999999998         -2.0873450805949760E-002
  0.20469999999999999         -1.9435239508445921E-002
  0.20555000000000001         -1.8156910842925426E-002
  0.20639999999999997         -1.7119914949329396E-002
  0.20724999999999999         -1.6339059850440780E-002
  0.20810000000000001         -1.5694604936159900E-002
  0.20894999999999997         -1.5030036795536550E-002
  0.20979999999999999         -1.4164295301747004E-002
  0.21065000000000000         -1.3014167660544895E-002
  0.21149999999999997         -1.1597435628374579E-002
  0.21234999999999998         -1.0068026585646817E-002
  0.21320000000000000         -8.6601498920870126E-003
  0.21404999999999996         -7.5712839052718417E-003
  0.21489999999999998         -6.9191918146647878E-003
  0.21575000000000000         -6.7078972908828872E-003
  0.21659999999999996         -6.7682219798280222E-003
  0.21744999999999998         -6.8729988177468450E-003
  0.21829999999999999         -6.7946882434305206E-003
  0.21915000000000001         -6.3920516337648038E-003
  0.21999999999999997         -5.6734212577749955E-003
  0.22084999999999999         -4.7638979931394852E-003
  0.22170000000000001         -3.8924929554164135E-003
  0.22254999999999997         -3.2790724117454737E-003
  0.22339999999999999         -3.0731504452214710E-003
  0.22425000000000000         -3.2825884002259161E-003
  0.22509999999999997         -3.8028972755323447E-003
  0.22594999999999998         -4.4360162126099723E-003
  0.22680000000000000         -4.9846955459014472E-003
  0.22764999999999996         -5.2934458014200249E-003
  0.22849999999999998         -5.3271512963370621E-003
  0.22935000000000000         -5.1546343987368360E-003
  0.23019999999999996         -4.9016860923930088E-003
  0.23104999999999998         -4.7153301132587021E-003
  0.23190000000000000         -4.6955798286547291E-003
  0.23275000000000001         -4.8642238775677311E-003
  0.23359999999999997         -5.1929141598001842E-003
  0.23444999999999999         -5.5856479850569345E-003
  0.23530000000000001         -5.9701931915536891E-003
  0.23614999999999997         -6.2914650180980591E-003
  0.23699999999999999         -6.5293402696263219E-003
  0.23785000000000001         -6.7014957890850334E-003
  0.23869999999999997         -6.8105136465612670E-003
  0.23954999999999999         -6.8449963349011761E-003
  0.24040000000000000         -6.7660315591896560E-003
  0.24124999999999996         -6.5468131724644805E-003
  0.24209999999999998         -6.1729203560201050E-003
  0.24295000000000000         -5.6822133437454134E-003
  0.24379999999999996         -5.1604853984278734E-003
  0.24464999999999998         -4.7262503796037993E-003
  0.24550000000000000         -4.4907492277977221E-003
  0.24634999999999996         -4.4867474888590124E-003
  0.24719999999999998         -4.6632124771318366E-003
  0.24804999999999999         -4.8675651572640064E-003
  0.24890000000000001         -4.8965137673539988E-003
  0.24974999999999997         -4.5719106711446782E-003
  0.25059999999999999         -3.8090724227064533E-003
  0.25145000000000001         -2.6607370654228618E-003
  0.25229999999999997         -1.3294582116776177E-003
  0.25314999999999999         -9.0280033748248157E-005
  0.25400000000000000          7.7328538185975515E-004
  0.25484999999999997          1.0965887562825187E-003
  0.25569999999999998          8.8694218453084107E-004
  0.25655000000000000          3.3151932935012406E-004
  0.25739999999999996         -2.5376710956347809E-004
  0.25824999999999998         -5.2385903196105056E-004
  0.25910000000000000         -2.3808564048273396E-004
  0.25994999999999996          6.5941882493337285E-004
  0.26079999999999998          2.0239710769163087E-003
  0.26164999999999999          3.5351209363942916E-003
  0.26249999999999996          4.8152805836726015E-003
  0.26334999999999997          5.5444715730078014E-003
  0.26419999999999999          5.5748429340043565E-003
  0.26505000000000001          4.9702727765230069E-003
  0.26589999999999997          3.9759121820031476E-003
  0.26674999999999999          2.9537826427361866E-003
  0.26760000000000000          2.2326524141382076E-003
  0.26844999999999997          2.0286418301482946E-003
  0.26929999999999998          2.3551430360401067E-003
  0.27015000000000000          3.0627608500284017E-003
  0.27099999999999996          3.8658603192262605E-003
  0.27184999999999998          4.4534159496434460E-003
  0.27270000000000000          4.5886709410249919E-003
  0.27354999999999996          4.1748159676642431E-003
  0.27439999999999998          3.2689371047055190E-003
  0.27524999999999999          2.0494437972651530E-003
  0.27609999999999996          7.6389947206498027E-004
  0.27694999999999997         -3.6395739219883877E-004
  0.27779999999999999         -1.1697668787634412E-003
  0.27865000000000001         -1.5984727341531043E-003
  0.27949999999999997         -1.6985912940434438E-003
  0.28034999999999999         -1.5988824624083540E-003
  0.28120000000000001         -1.4519385231298117E-003
  0.28204999999999997         -1.4221094802997669E-003
  0.28289999999999998         -1.6371374046132081E-003
  0.28375000000000000         -2.1592311232852051E-003
  0.28459999999999996         -2.9940997971102845E-003
  0.28544999999999998         -4.0757523532623640E-003
  0.28630000000000000         -5.2728378294119669E-003
  0.28714999999999996         -6.4168340145344454E-003
  0.28799999999999998         -7.3259052830827410E-003
  0.28885000000000000         -7.8557703744330919E-003
  0.28969999999999996         -7.9326460410434427E-003
  0.29054999999999997         -7.5882907768187466E-003
  0.29139999999999999         -6.9592032169129630E-003
  0.29224999999999995         -6.2610813337898152E-003
  0.29309999999999997         -5.7269012110237284E-003
  0.29394999999999999         -5.5292715611528660E-003
  0.29480000000000001         -5.7263627383943357E-003
  0.29564999999999997         -6.2203287653776959E-003
  0.29649999999999999         -6.7940921927433055E-003
  0.29735000000000000         -7.1593684314438166E-003
  0.29819999999999997         -7.0638921043419184E-003
  0.29904999999999998         -6.3817261343748393E-003
  0.29990000000000000         -5.1599216348188854E-003
  0.30074999999999996         -3.6174255394723401E-003
  0.30159999999999998         -2.0820725798220288E-003
  0.30245000000000000         -8.8006103412094263E-004
  0.30329999999999996         -2.3136863984065287E-004
  0.30414999999999998         -1.7383389478690107E-004
  0.30499999999999999         -5.5222242705639155E-004
  0.30584999999999996         -1.0659820600498067E-003
  0.30669999999999997         -1.3814243921945338E-003
  0.30754999999999999         -1.2499243664275644E-003
  0.30840000000000001         -5.8747930109586007E-004
  0.30924999999999997          4.9213722354549962E-004
  0.31009999999999999          1.7230590603281983E-003
  0.31095000000000000          2.7720897283277763E-003
  0.31179999999999997          3.3612820454820046E-003
  0.31264999999999998          3.3409353517130694E-003
  0.31350000000000000          2.7354125751235889E-003
  0.31434999999999996          1.7082725462320462E-003
  0.31519999999999998          4.9386326409874817E-004
  0.31605000000000000         -7.0484557264032422E-004
  0.31689999999999996         -1.7757652207889131E-003
  0.31774999999999998         -2.7351237715110702E-003
  0.31859999999999999         -3.7014248229524250E-003
  0.31944999999999996         -4.8334396398945489E-003
  0.32029999999999997         -6.2615525388608258E-003
  0.32114999999999999         -8.0428237816763740E-003
  0.32199999999999995         -1.0150558401024190E-002
  0.32284999999999997         -1.2509163163824869E-002
  0.32369999999999999         -1.5048101357154795E-002
  0.32455000000000001         -1.7743906026179816E-002
  0.32539999999999997         -2.0653106600765362E-002
  0.32624999999999998         -2.3887405039542425E-002
  0.32710000000000000         -2.7568847703622713E-002
  0.32794999999999996         -3.1765646369053865E-002
  0.32879999999999998         -3.6456913874126390E-002
  0.32965000000000000         -4.1519507583872184E-002
  0.33049999999999996         -4.6779556261884597E-002
  0.33134999999999998         -5.2074504692830155E-002
  0.33220000000000000         -5.7326885166654282E-002
  0.33304999999999996         -6.2583614786351022E-002
  0.33389999999999997         -6.8008544772563420E-002
  0.33474999999999999         -7.3821903594510352E-002
  0.33559999999999995         -8.0222250046855362E-002
  0.33644999999999997         -8.7298732993150621E-002
  0.33729999999999999         -9.4979263444384995E-002
  0.33815000000000001        -0.10304508488163873
  0.33899999999999997        -0.11118171893486768
  0.33984999999999999        -0.11907503218278877
  0.34070000000000000        -0.12650902871841299
  0.34154999999999996        -0.13341938490583949
  0.34239999999999998        -0.13988126586487326
  0.34325000000000000        -0.14606486182249220
  0.34409999999999996        -0.15215783118666573
  0.34494999999999998        -0.15824452200563802
  0.34580000000000000        -0.16427609754528680
  0.34664999999999996        -0.17004639541961400
  0.34749999999999998        -0.17523356359884845
  0.34834999999999999        -0.17946501432181397
  0.34919999999999995        -0.18240469494155656
  0.35004999999999997        -0.18379704411803494
  0.35089999999999999        -0.18348607295867464
  0.35174999999999995        -0.18139499449699834
  0.35259999999999997        -0.17750034952429511
  0.35344999999999999        -0.17178083053840723
  0.35430000000000000        -0.16416262417095920
  0.35514999999999997        -0.15455508831672754
  0.35599999999999998        -0.14283077144266926
  0.35685000000000000        -0.12888586847570066
  0.35769999999999996        -0.11253243341456366
  0.35854999999999998         -9.3633479583704091E-002
  0.35940000000000000         -7.2020228939107908E-002
  0.36024999999999996         -4.7468349906182275E-002
  0.36109999999999998         -1.9759594280089155E-002