 -0.12000000000000000          0.0000000000000000
 -0.11914999999999999          0.0000000000000000
 -0.11830000000000000          0.0000000000000000
 -0.11745000000000000          0.0000000000000000
 -0.11660000000000000          0.0000000000000000
 -0.11574999999999999          0.0000000000000000
 -0.11490000000000000          0.0000000000000000
 -0.11405000000000000          0.0000000000000000
 -0.11320000000000000          0.0000000000000000
 -0.11234999999999999          0.0000000000000000
 -0.11150000000000000         -3.2237274776449088E-032
 -0.11065000000000000         -4.9884963017517183E-031
 -0.10979999999999999         -3.6897209316862374E-030
 -0.10894999999999999         -1.6627220829941707E-029
 -0.10810000000000000         -4.5596820175746304E-029
 -0.10725000000000000         -4.0381039546101534E-029
 -0.10639999999999999          3.0173200624192352E-028
 -0.10554999999999999          1.9260893893920273E-027
 -0.10470000000000000          6.6749557157128253E-027
 -0.10385000000000000          1.6038038638761509E-026
 -0.10299999999999999          2.5596550808818142E-026
 -0.10214999999999999          1.2435378134042693E-026
 -0.10130000000000000         -8.1419824864640893E-026
 -0.10045000000000000         -3.5049616045776968E-025
  -9.9599999999999994E-002    -8.6898391624647591E-025
  -9.8750000000000004E-002    -1.5183036958901258E-024
  -9.7900000000000001E-002    -1.6798052824568283E-024
  -9.7049999999999997E-002     8.7424427226217130E-026
  -9.6199999999999994E-002     6.0119754415404252E-024
  -9.5349999999999990E-002     1.8085134734076428E-023
  -9.4500000000000001E-002     3.5411177181423033E-023
  -9.3649999999999997E-002     4.9954753629019195E-023
  -9.2799999999999994E-002     4.2313242647504377E-023
  -9.1950000000000004E-002    -1.8521804065436545E-023
  -9.1100000000000000E-002    -1.6553686439863237E-022
  -9.0249999999999997E-002    -4.0899301682046099E-022
  -8.9399999999999993E-002    -6.9715580907542518E-022
  -8.8549999999999990E-002    -8.7483320541499243E-022
  -8.7700000000000000E-002    -6.6762081069382746E-022
  -8.6849999999999997E-002     2.6874179425994545E-022
  -8.5999999999999993E-002     2.1990362214469246E-021
  -8.5150000000000003E-002     5.0565555265835101E-021
  -8.4300000000000000E-002     8.1483626972565025E-021
  -8.3449999999999996E-002     9.9558808075076369E-021
  -8.2600000000000007E-002     8.2257698221309119E-021
  -8.1749999999999989E-002     5.3132585805631780E-022
  -8.0900000000000000E-002    -1.4643506193133357E-020
  -8.0049999999999996E-002    -3.6487369214958104E-020
  -7.9199999999999993E-002    -6.0589685573370081E-020
  -7.8350000000000003E-002    -7.8489661425262903E-020
  -7.7499999999999999E-002    -7.8669786804675876E-020
  -7.6649999999999996E-002    -4.9219995586515197E-020
  -7.5800000000000006E-002     1.8278256543324532E-020
  -7.4949999999999989E-002     1.2477499862176144E-019
  -7.4099999999999999E-002     2.6105973467320039E-019
  -7.3249999999999996E-002     4.0719348435081544E-019
  -7.2399999999999992E-002     5.3358349310885150E-019
  -7.1550000000000002E-002     6.0173714694946990E-019
  -7.0699999999999999E-002     5.6228492364035371E-019
  -6.9849999999999995E-002     3.4978798268230443E-019
  -6.9000000000000006E-002    -1.2131434468599195E-019
  -6.8149999999999988E-002    -9.4874164065770077E-019
  -6.7299999999999999E-002    -2.2069050061362933E-018
  -6.6449999999999995E-002    -3.8710868407374584E-018
  -6.5599999999999992E-002    -5.7032390783235603E-018
  -6.4750000000000002E-002    -7.1293704785898264E-018
  -6.3899999999999998E-002    -7.1734239147435246E-018
  -6.3049999999999995E-002    -4.5392785790654631E-018
  -6.2199999999999998E-002     2.0704475210340047E-018
  -6.1350000000000002E-002     1.3362800261732475E-017
  -6.0499999999999998E-002     2.8663446884430883E-017
  -5.9650000000000002E-002     4.5148327124058453E-017
  -5.8799999999999998E-002     5.7459992487937912E-017
  -5.7950000000000002E-002     5.8130070350010861E-017
  -5.7099999999999998E-002     3.9134941004162289E-017
  -5.6249999999999994E-002    -5.3800351233938637E-018
  -5.5400000000000005E-002    -7.5637572887468213E-017
  -5.4550000000000001E-002    -1.6298278960694949E-016
  -5.3699999999999998E-002    -2.4820708049837883E-016
  -5.2849999999999994E-002    -3.0283693675068850E-016
  -5.2000000000000005E-002    -2.9430018972212408E-016
  -5.1150000000000001E-002    -1.9483894004930987E-016
  -5.0299999999999997E-002     7.3829545317792614E-018
  -4.9449999999999994E-002     2.9793275322098060E-016
  -4.8600000000000004E-002     6.3032616751423640E-016
  -4.7750000000000001E-002     9.2839397076478739E-016
  -4.6899999999999997E-002     1.0988169323453081E-015
  -4.6049999999999994E-002     1.0530579520919139E-015
  -4.5200000000000004E-002     7.3453014694659544E-016
  -4.4350000000000001E-002     1.4387173363533908E-016
  -4.3499999999999997E-002    -6.4619655098431663E-016
  -4.2649999999999993E-002    -1.4938649429704087E-015
  -4.1800000000000004E-002    -2.2126252223959290E-015
  -4.0950000000000000E-002    -2.6145243286385150E-015
  -4.0099999999999997E-002    -2.5629944192171173E-015
  -3.9249999999999993E-002    -2.0205981895981567E-015
  -3.8400000000000004E-002    -1.0751206823397661E-015
  -3.7550000000000000E-002     6.9521516517624530E-017
  -3.6699999999999997E-002     1.1428842372021709E-015
  -3.5850000000000007E-002     1.8914977714455423E-015
  -3.5000000000000003E-002     2.1767945178547973E-015
  -3.4150000000000000E-002     2.0578147093090834E-015
  -3.3299999999999996E-002     1.8253723469793943E-015
  -3.2450000000000007E-002     1.9600182051633050E-015
  -3.1600000000000003E-002     3.0016858113310360E-015
  -3.0750000000000000E-002     5.3428236341508635E-015
  -2.9899999999999996E-002     8.9847213297506335E-015
  -2.9050000000000006E-002     1.3321923606895844E-014
  -2.8200000000000003E-002     1.7034482290643679E-014
  -2.7349999999999999E-002     1.8165106479041676E-014
  -2.6499999999999996E-002     1.4432869299671530E-014
  -2.5650000000000006E-002     3.7863446508302531E-015
  -2.4800000000000003E-002    -1.4867710196803683E-014
  -2.3949999999999999E-002    -4.0896450568609334E-014
  -2.3099999999999996E-002    -7.1330452732306550E-014
  -2.2250000000000006E-002    -1.0063534312615111E-013
  -2.1400000000000002E-002    -1.2106667507553577E-013
  -2.0549999999999999E-002    -1.2372391114807685E-013
  -1.9699999999999995E-002    -1.0027558169115476E-013
  -1.8850000000000006E-002    -4.5147072252977039E-014
  -1.8000000000000002E-002     4.2217457711318926E-014
  -1.7149999999999999E-002     1.5553758175129420E-013
  -1.6299999999999995E-002     2.8087676731733324E-013
  -1.5450000000000005E-002     3.9727758868298295E-013
  -1.4600000000000002E-002     4.7907918745128505E-013
  -1.3749999999999998E-002     4.9980998660753196E-013
  -1.2899999999999995E-002     4.3717424117059586E-013
  -1.2050000000000005E-002     2.7832274986480488E-013
  -1.1200000000000002E-002     2.4401339443457294E-014
  -1.0349999999999998E-002    -3.0662955019244992E-013
  -9.5000000000000084E-003    -6.7969339505330014E-013
  -8.6500000000000049E-003    -1.0452000976910763E-012
  -7.8000000000000014E-003    -1.3444287586283242E-012
  -6.9499999999999978E-003    -1.5170645186620779E-012
  -6.1000000000000082E-003    -1.5098722491586495E-012
  -5.2500000000000047E-003    -1.2852912758890344E-012
  -4.4000000000000011E-003    -8.2875084348116444E-013
  -3.5499999999999976E-003    -1.5371986329256100E-013
  -2.7000000000000079E-003     6.9616079304868088E-013
  -1.8500000000000044E-003     1.6481518935863956E-012
  -1.0000000000000009E-003     2.6046660249744614E-012
  -1.4999999999999736E-004     3.4504330928766175E-012
   6.9999999999999230E-004     4.0621647382059514E-012
   1.5499999999999958E-003     4.3201861494678476E-012
   2.3999999999999994E-003     4.1214004284638609E-012
   3.2500000000000029E-003     3.3927711969737328E-012
   4.0999999999999925E-003     2.1042710268657968E-012
   4.9499999999999961E-003     2.8004170480197516E-013
   5.7999999999999996E-003    -1.9936082517189740E-012
   6.6499999999999893E-003    -4.5647663599847050E-012
   7.5000000000000067E-003    -7.2182553072739820E-012
   8.3499999999999963E-003    -9.6845886119350741E-012
   9.1999999999999860E-003    -1.1655811233301651E-011
   1.0050000000000003E-002    -1.2807948170708990E-011
   1.0899999999999993E-002    -1.2829358701156191E-011
   1.1750000000000010E-002    -1.1453825058384331E-011
   1.2600000000000000E-002    -8.4968093293412398E-012
   1.3449999999999990E-002    -3.8929094223037393E-012
   1.4300000000000007E-002     2.2679921675224084E-012
   1.5149999999999997E-002     9.7093572824572507E-012
   1.5999999999999986E-002     1.7946114628353554E-011
   1.6850000000000004E-002     2.6278282570476876E-011
   1.7699999999999994E-002     3.3807058867155232E-011
   1.8549999999999983E-002     3.9480429497125852E-011
   1.9400000000000001E-002     4.2173770817737919E-011
   2.0249999999999990E-002     4.0807180639038408E-011
   2.1100000000000008E-002     3.4495123085217103E-011
   2.1949999999999997E-002     2.2716098657768433E-011
   2.2799999999999987E-002     5.4815697350867041E-012
   2.3650000000000004E-002    -1.6523779803528994E-011
   2.4499999999999994E-002    -4.1862012670875830E-011
   2.5349999999999984E-002    -6.8351474968242074E-011
   2.6200000000000001E-002    -9.3186033625164606E-011
   2.7049999999999991E-002    -1.1316833593411366E-010
   2.7900000000000008E-002    -1.2504141205015861E-010
   2.8749999999999998E-002    -1.2588235115046868E-010
   2.9599999999999987E-002    -1.1350587000790567E-010
   3.0450000000000005E-002    -8.6818944516659623E-011
   3.1299999999999994E-002    -4.6073108542557670E-011
   3.2149999999999984E-002     7.0214389888278909E-012
   3.3000000000000002E-002     6.9330238270620994E-011
   3.3849999999999991E-002     1.3646170183234874E-010
   3.4700000000000009E-002     2.0303080850889275E-010
   3.5549999999999998E-002     2.6297650608062684E-010
   3.6399999999999988E-002     3.0990057423025774E-010
   3.7250000000000005E-002     3.3741894046395665E-010
   3.8099999999999995E-002     3.3954369861724166E-010
   3.8949999999999985E-002     3.1113398235761926E-010
   3.9800000000000002E-002     2.4845505020307642E-010
   4.0649999999999992E-002     1.4985921406968091E-010
   4.1500000000000009E-002     1.6551127534699165E-011
   4.2349999999999999E-002    -1.4666488917411052E-010
   4.3199999999999988E-002    -3.3081759263250780E-010
   4.4050000000000006E-002    -5.2257557125161824E-010
   4.4899999999999995E-002    -7.0460782499499829E-010
   4.5749999999999985E-002    -8.5661220436480904E-010
   4.6600000000000003E-002    -9.5701781946748560E-010
   4.7449999999999992E-002    -9.8523585382252933E-010
   4.8299999999999982E-002    -9.2421182365021476E-010
   4.9149999999999999E-002    -7.6295215526910080E-010
   4.9999999999999989E-002    -4.9868290095781629E-010
   5.0850000000000006E-002    -1.3834662317448950E-010
   5.1699999999999996E-002     3.0075808036282275E-010
   5.2549999999999986E-002     7.9126712112227511E-010
   5.3400000000000003E-002     1.2969414409007199E-009
   5.4249999999999993E-002     1.7746605022547528E-009
   5.5099999999999982E-002     2.1771014323980522E-009
   5.5950000000000000E-002     2.4560042445947030E-009
   5.6799999999999989E-002     2.5659465637618129E-009
   5.7650000000000007E-002     2.4685353210243127E-009
   5.8499999999999996E-002     2.1368539471273599E-009
   5.9349999999999986E-002     1.5598813054050610E-009
   6.0200000000000004E-002     7.4644676934322710E-010
   6.1049999999999993E-002    -2.7185583201996613E-010
   6.1899999999999983E-002    -1.4394264249196766E-009
   6.2750000000000000E-002    -2.6776554867139733E-009
   6.3599999999999990E-002    -3.8885136755102416E-009
   6.4450000000000007E-002    -4.9607671062678072E-009
   6.5299999999999997E-002    -5.7784857978088505E-009
   6.6149999999999987E-002    -6.2311707278008558E-009
   6.7000000000000004E-002    -6.2245715841007071E-009
   6.7849999999999994E-002    -5.6911622931164833E-009
   6.8699999999999983E-002    -4.5992995619487653E-009
   6.9550000000000001E-002    -2.9602280075181375E-009
   7.0399999999999990E-002    -8.3230745524366262E-010
   7.1249999999999980E-002     1.6779783620001874E-009
   7.2099999999999997E-002     4.4185379901767162E-009
   7.2949999999999987E-002     7.1979214638505106E-009
   7.3800000000000004E-002     9.7953855905971731E-009
   7.4649999999999994E-002     1.1974686866483575E-008
   7.5499999999999984E-002     1.3501216075694820E-008
   7.6350000000000001E-002     1.4161662203716416E-008
   7.7199999999999991E-002     1.3784899189751331E-008
   7.8049999999999981E-002     1.2262309584252171E-008
   7.8899999999999998E-002     9.5654517705329001E-009
   7.9749999999999988E-002     5.7588712320892211E-009
   8.0600000000000005E-002     1.0061017154764729E-009
   8.1449999999999995E-002    -4.4325081027213393E-009
   8.2299999999999984E-002    -1.0210771530390903E-008
   8.3150000000000002E-002    -1.5916207358840242E-008
   8.3999999999999991E-002    -2.1097089737501349E-008
   8.4849999999999981E-002    -2.5295163564365259E-008
   8.5699999999999998E-002    -2.8081682624872065E-008
   8.6549999999999988E-002    -2.9094100936962939E-008
   8.7400000000000005E-002    -2.8070542244852476E-008
   8.8249999999999995E-002    -2.4879147179225420E-008
   8.9099999999999985E-002    -1.9539499384529794E-008
   8.9950000000000002E-002    -1.2233741020214459E-008
   9.0799999999999992E-002    -3.3055766665291732E-009
   9.1649999999999981E-002     6.7536384191843874E-009
   9.2499999999999999E-002     1.7331373061600982E-008
   9.3349999999999989E-002     2.7731335590239275E-008
   9.4200000000000006E-002     3.7218926391933474E-008
   9.5049999999999996E-002     4.5071068676739159E-008
   9.5899999999999985E-002     5.0626392363882560E-008
   9.6750000000000003E-002     5.3332012537840723E-008
   9.7599999999999992E-002     5.2783969629560942E-008
   9.8449999999999982E-002     4.8759408981580827E-008
   9.9299999999999999E-002     4.1239465363194594E-008
  0.10014999999999999          3.0422346459422144E-008
  0.10099999999999998          1.6726298662075319E-008
  0.10185000000000000          7.8179807955487391E-010
  0.10269999999999999         -1.6588108256094357E-008
  0.10355000000000000         -3.4400799993198147E-008
  0.10439999999999999         -5.1561351698267575E-008
  0.10524999999999998         -6.6923786668072847E-008
  0.10610000000000000         -7.9364026094710020E-008
  0.10694999999999999         -8.7860050035813006E-008
  0.10779999999999998         -9.1572835645342947E-008
  0.10865000000000000         -8.9920130774496588E-008
  0.10949999999999999         -8.2635063006391541E-008
  0.11035000000000000         -6.9803095826847616E-008
  0.11119999999999999         -5.1873285024701789E-008
  0.11204999999999998         -2.9642731584449557E-008
  0.11290000000000000         -4.2159210777839131E-009
  0.11374999999999999          2.3056941247273333E-008
  0.11459999999999998          5.0657324074471414E-008
  0.11545000000000000          7.6986182974884005E-008
  0.11629999999999999          1.0045766027563128E-007
  0.11715000000000000          1.1959444017088565E-007
  0.11799999999999999          1.3312088713488291E-007
  0.11884999999999998          1.4004955006635423E-007
  0.11970000000000000          1.3975572394021152E-007
  0.12054999999999999          1.3203398702932236E-007
  0.12139999999999998          1.1712989893758052E-007
  0.12225000000000000          9.5740255741114343E-008
  0.12309999999999999          6.8978235406603611E-008
  0.12395000000000000          3.8303088750413114E-008
  0.12479999999999999          5.4176910153379469E-009
  0.12564999999999998         -2.7856791142996498E-008
  0.12650000000000000         -5.9716549011064311E-008
  0.12734999999999999         -8.8506936169833831E-008
  0.12819999999999998         -1.1283844185745368E-007
  0.12905000000000000         -1.3167518600457020E-007
  0.12989999999999999         -1.4438462272849337E-007
  0.13074999999999998         -1.5074896287735740E-007
  0.13159999999999999         -1.5094257188920855E-007
  0.13245000000000001         -1.4547494553416339E-007
  0.13329999999999997         -1.3511057337020571E-007
  0.13414999999999999         -1.2077143699238500E-007
  0.13500000000000001         -1.0342709177554400E-007
  0.13584999999999997         -8.3990091801813682E-008
  0.13669999999999999         -6.3221770487020302E-008
  0.13755000000000001         -4.1650705149732524E-008
  0.13839999999999997         -1.9518360228176765E-008
  0.13924999999999998          3.2470432784908538E-009
  0.14010000000000000          2.7024302848817726E-008
  0.14094999999999996          5.2453523135721245E-008
  0.14179999999999998          8.0353664980894333E-008
  0.14265000000000000          1.1162619553205847E-007
  0.14350000000000002          1.4715854209835112E-007
  0.14434999999999998          1.8772065822507248E-007
  0.14520000000000000          2.3387979475179888E-007
  0.14605000000000001          2.8598186642889139E-007
  0.14689999999999998          3.4419750163454770E-007
  0.14774999999999999          4.0859824498446762E-007
  0.14860000000000001          4.7930586731479134E-007
  0.14944999999999997          5.5670049970796931E-007
  0.15029999999999999          6.4165571524801517E-007
  0.15115000000000001          7.3576959702711135E-007
  0.15199999999999997          8.4156212154262671E-007
  0.15284999999999999          9.6263392971462946E-007
  0.15370000000000000          1.1037737169291747E-006
  0.15454999999999997          1.2710110169143567E-006
  0.15539999999999998          1.4715768476199341E-006
  0.15625000000000000          1.7137454754325553E-006
  0.15709999999999996          2.0067600302341623E-006
  0.15794999999999998          2.3608012380843204E-006
  0.15880000000000000          2.7869411404357198E-006
  0.15965000000000001          3.2971639199835023E-006
  0.16049999999999998          3.9044953929035587E-006
  0.16134999999999999          4.6232908906531582E-006
  0.16220000000000001          5.4694420825568323E-006
  0.16304999999999997          6.4608285254464745E-006
  0.16389999999999999          7.6176986546707022E-006
  0.16475000000000001          8.9631091377536698E-006
  0.16559999999999997          1.0523397260661189E-005
  0.16644999999999999          1.2328628029305726E-005
  0.16730000000000000          1.4412947285825099E-005
  0.16814999999999997          1.6814891858782903E-005
  0.16899999999999998          1.9577869310251583E-005
  0.16985000000000000          2.2750312802191563E-005
  0.17069999999999996          2.6386146015582744E-005
  0.17154999999999998          3.0545331578692590E-005
  0.17240000000000000          3.5293515477845957E-005
  0.17325000000000002          4.0702164534757906E-005
  0.17409999999999998          4.6848799130126976E-005
  0.17494999999999999          5.3816424051390981E-005
  0.17580000000000001          6.1693746750478490E-005
  0.17664999999999997          7.0576316173781922E-005
  0.17749999999999999          8.0567653504624767E-005
  0.17835000000000001          9.1778120659601601E-005
  0.17919999999999997          1.0432388563998894E-004
  0.18004999999999999          1.1832847632533552E-004
  0.18090000000000001          1.3392481898336661E-004
  0.18174999999999997          1.5125398375542262E-004
  0.18259999999999998          1.7046358501778778E-004
  0.18345000000000000          1.9170815922865252E-004
  0.18429999999999996          2.1514822731570588E-004
  0.18514999999999998          2.4094941691198769E-004
  0.18600000000000000          2.6928112550866885E-004
  0.18684999999999996          3.0031625960810575E-004
  0.18769999999999998          3.3422770061613508E-004
  0.18855000000000000          3.7118131420263634E-004
  0.18940000000000001          4.1133740431344775E-004
  0.19024999999999997          4.5485031819650492E-004
  0.19109999999999999          5.0186325358939738E-004
  0.19195000000000001          5.5250278592745416E-004
  0.19279999999999997          6.0687150408612704E-004
  0.19364999999999999          6.6504663835103227E-004
  0.19450000000000001          7.2708322047913506E-004
  0.19534999999999997          7.9301175092034244E-004
  0.19619999999999999          8.6282413316407839E-004
  0.19705000000000000          9.3646353972058247E-004
  0.19789999999999996          1.0138176047679059E-003
  0.19874999999999998          1.0947246643969173E-003
  0.19960000000000000          1.1789781444729132E-003
  0.20044999999999996          1.2663050316049935E-003
  0.20129999999999998          1.3563482905687111E-003
  0.20215000000000000          1.4486702570369412E-003
  0.20300000000000001          1.5427551477692535E-003
  0.20384999999999998          1.6380075670812352E-003
  0.20469999999999999          1.7337332072550739E-003
  0.20555000000000001          1.8291297560568093E-003
  0.20639999999999997          1.9232886531757355E-003
  0.20724999999999999          2.0152000548961740E-003
  0.20810000000000001          2.1037554339894053E-003
  0.20894999999999997          2.1877379115250832E-003
  0.20979999999999999          2.2658277054311820E-003
  0.21065000000000000          2.3366127315199007E-003
  0.21149999999999997          2.3985914895695848E-003
  0.21234999999999998          2.4501757883292393E-003
  0.21320000000000000          2.4896965544198599E-003
  0.21404999999999996          2.5154262264910077E-003
  0.21489999999999998          2.5255958241640923E-003
  0.21575000000000000          2.5183932767971528E-003
  0.21659999999999996          2.4919935851379555E-003
  0.21744999999999998          2.4445902796058675E-003
  0.21829999999999999          2.3744147686455414E-003
  0.21915000000000001          2.2797444882878687E-003
  0.21999999999999997          2.1589292444149258E-003
  0.22084999999999999          2.0104318854668370E-003
  0.22170000000000001          1.8328507586536516E-003
  0.22254999999999997          1.6249587087694447E-003
  0.22339999999999999          1.3857343374456352E-003
  0.22425000000000000          1.1143446591201863E-003
  0.22509999999999997          8.1016728938985332E-004
  0.22594999999999998          4.7291022269222880E-004
  0.22680000000000000          1.0266526567268052E-004
  0.22764999999999996         -3.0012783498755552E-004
  0.22849999999999998         -7.3469715587919592E-004
  0.22935000000000000         -1.1999049145826773E-003
  0.23019999999999996         -1.6942116168741216E-003
  0.23104999999999998         -2.2156595167386914E-003
  0.23190000000000000         -2.7618562382848884E-003
  0.23275000000000001         -3.3299684385752438E-003
  0.23359999999999997         -3.9167191947001162E-003
  0.23444999999999999         -4.5184180443518266E-003
  0.23530000000000001         -5.1309889615473109E-003
  0.23614999999999997         -5.7499533025217302E-003
  0.23699999999999999         -6.3704110320289926E-003
  0.23785000000000001         -6.9871258142872542E-003
  0.23869999999999997         -7.5946350175458612E-003
  0.23954999999999999         -8.1872571261462426E-003
  0.24040000000000000         -8.7590728981372309E-003
  0.24124999999999996         -9.3039963107196949E-003
  0.24209999999999998         -9.8159038462610447E-003
  0.24295000000000000         -1.0288701756035338E-002
  0.24379999999999996         -1.0716333159657613E-002
  0.24464999999999998         -1.1092815772477341E-002
  0.24550000000000000         -1.1412356766164910E-002
  0.24634999999999996         -1.1669471114085301E-002
  0.24719999999999998         -1.1859043828995920E-002
  0.24804999999999999         -1.1976371246903997E-002
  0.24890000000000001         -1.2017225708878592E-002
  0.24974999999999997         -1.1977940021361657E-002
  0.25059999999999999         -1.1855479790379084E-002
  0.25145000000000001         -1.1647498747705921E-002
  0.25229999999999997         -1.1352413439761441E-002
  0.25314999999999999         -1.0969460603483609E-002
  0.25400000000000000         -1.0498687875775823E-002
  0.25484999999999997         -9.9409061824835554E-003
  0.25569999999999998         -9.2977488550442695E-003
  0.25655000000000000         -8.5717999818246491E-003
  0.25739999999999996         -7.7665709525454700E-003
  0.25824999999999998         -6.8863665998702452E-003
  0.25910000000000000         -5.9362415890681520E-003
  0.25994999999999996         -4.9220681998312452E-003
  0.26079999999999998         -3.8505609718203632E-003
  0.26164999999999999         -2.7291435485616946E-003
  0.26249999999999996         -1.5657604372073001E-003
  0.26334999999999997         -3.6884791532357155E-004
  0.26419999999999999          8.5264883241208773E-004
  0.26505000000000001          2.0893093483137469E-003
  0.26589999999999997          3.3314616565195271E-003
  0.26674999999999999          4.5693872694742869E-003
  0.26760000000000000          5.7933105840767083E-003
  0.26844999999999997          6.9934012551980404E-003
  0.26929999999999998          8.1598552451104603E-003
  0.27015000000000000          9.2831557955565316E-003
  0.27099999999999996          1.0354263084093547E-002
  0.27184999999999998          1.1364571646350739E-002
  0.27270000000000000          1.2305896322702287E-002
  0.27354999999999996          1.3170605097372355E-002
  0.27439999999999998          1.3951831920483555E-002
  0.27524999999999999          1.4643586870204598E-002
  0.27609999999999996          1.5240717882067359E-002
  0.27694999999999997          1.5738873493244779E-002
  0.27779999999999999          1.6134593245093233E-002
  0.27865000000000001          1.6425419525560401E-002
  0.27949999999999997          1.6609906590495278E-002
  0.28034999999999999          1.6687573119196965E-002
  0.28120000000000001          1.6658853267127190E-002
  0.28204999999999997          1.6525108997139128E-002
  0.28289999999999998          1.6288648392408352E-002
  0.28375000000000000          1.5952752662817933E-002
  0.28459999999999996          1.5521605477682606E-002
  0.28544999999999998          1.5000153040117547E-002
  0.28630000000000000          1.4394012484310175E-002
  0.28714999999999996          1.3709402608549529E-002
  0.28799999999999998          1.2953115725674733E-002
  0.28885000000000000          1.2132471512934510E-002
  0.28969999999999996          1.1255199446300181E-002
  0.29054999999999997          1.0329314713722079E-002
  0.29139999999999999          9.3630410884766382E-003
  0.29224999999999995          8.3647622140467712E-003
  0.29309999999999997          7.3429653374576572E-003
  0.29394999999999999          6.3061172075240188E-003
  0.29480000000000001          5.2625255785999142E-003
  0.29564999999999997          4.2202515579274173E-003
  0.29649999999999999          3.1870534962234382E-003
  0.29735000000000000          2.1703442018495608E-003
  0.29819999999999997          1.1771271983376220E-003
  0.29904999999999998          2.1391729651065749E-004
  0.29990000000000000         -7.1331261967644125E-004
  0.30074999999999996         -1.5991281810143994E-003
  0.30159999999999998         -2.4386197897396465E-003
  0.30245000000000000         -3.2274426891769599E-003
  0.30329999999999996         -3.9619059639271889E-003
  0.30414999999999998         -4.6390286798923298E-003
  0.30499999999999999         -5.2565077554841810E-003
  0.30584999999999996         -5.8126378094842234E-003
  0.30669999999999997         -6.3062938188351439E-003
  0.30754999999999999         -6.7369794564700568E-003
  0.30840000000000001         -7.1048259464928177E-003
  0.30924999999999997         -7.4105129771096625E-003
  0.31009999999999999         -7.6551846105896697E-003
  0.31095000000000000         -7.8404229602744673E-003
  0.31179999999999997         -7.9682331486743870E-003
  0.31264999999999998         -8.0410090090167804E-003
  0.31350000000000000         -8.0614875309606739E-003
  0.31434999999999996         -8.0327138745800390E-003
  0.31519999999999998         -7.9579915751869200E-003
  0.31605000000000000         -7.8407885396345640E-003
  0.31689999999999996         -7.6846866579904048E-003
  0.31774999999999998         -7.4934129735074913E-003
  0.31859999999999999         -7.2708169071859516E-003
  0.31944999999999996         -7.0207243586810552E-003
  0.32029999999999997         -6.7468330227666096E-003
  0.32114999999999999         -6.4527769631819495E-003
  0.32199999999999995         -6.1422209999015213E-003
  0.32284999999999997         -5.8187716578088008E-003
  0.32369999999999999         -5.4857695666574377E-003
  0.32455000000000001         -5.1462562875744669E-003
  0.32539999999999997         -4.8031537249177596E-003
  0.32624999999999998         -4.4593436425423971E-003
  0.32710000000000000         -4.1174923385550698E-003
  0.32794999999999996         -3.7798819304144643E-003
  0.32879999999999998         -3.4484975089574097E-003
  0.32965000000000000         -3.1252089300604115E-003
  0.33049999999999996         -2.8117568119930972E-003
  0.33134999999999998         -2.5095836699855398E-003
  0.33220000000000000         -2.2197914911497472E-003
  0.33304999999999996         -1.9432895515355698E-003
  0.33389999999999997         -1.6808938032573017E-003
  0.33474999999999999         -1.4332499898480568E-003
  0.33559999999999995         -1.2007501196196469E-003
  0.33644999999999997         -9.8358055945401541E-004
  0.33729999999999999         -7.8181764574419008E-004
  0.33815000000000001         -5.9543753052771647E-004
  0.33899999999999997         -4.2426192315325100E-004
  0.33984999999999999         -2.6794696895704137E-004
  0.34070000000000000         -1.2603827595781370E-004
  0.34154999999999996          1.9580747511046360E-006
  0.34239999999999998          1.1655009102586141E-004
  0.34325000000000000          2.1829845964434027E-004