 -0.12000000000000000          0.0000000000000000
 -0.11914999999999999          0.0000000000000000
 -0.11830000000000000          0.0000000000000000
 -0.11745000000000000          0.0000000000000000
 -0.11660000000000000          0.0000000000000000
 -0.11574999999999999          0.0000000000000000
 -0.11490000000000000          0.0000000000000000
 -0.11405000000000000          0.0000000000000000
 -0.11320000000000000          0.0000000000000000
 -0.11234999999999999          0.0000000000000000
 -0.11150000000000000          0.0000000000000000
 -0.11065000000000000          1.6443099775498606E-033
 -0.10979999999999999          1.7233268295221669E-032
 -0.10894999999999999          3.2551866276156140E-034
 -0.10810000000000000         -1.2818571282024776E-030
 -0.10725000000000000         -1.3600279968884745E-029
 -0.10639999999999999         -8.5909915445415992E-029
 -0.10554999999999999         -3.9529398920132045E-028
 -0.10470000000000000         -1.4165274635261952E-027
 -0.10385000000000000         -4.0290973605343609E-027
 -0.10299999999999999         -8.8764795996362158E-027
 -0.10214999999999999         -1.3231869637979343E-026
 -0.10130000000000000         -2.6043294000576632E-027
 -0.10045000000000000          6.4314305521037679E-026
  -9.9599999999999994E-002     2.7007799869467271E-025
  -9.8750000000000004E-002     7.2311771494132231E-025
  -9.7900000000000001E-002     1.4486991872744807E-024
  -9.7049999999999997E-002     2.0960589213892789E-024
  -9.6199999999999994E-002     1.4126256531178105E-024
  -9.5349999999999990E-002    -3.3578433505794601E-024
  -9.4500000000000001E-002    -1.6535876233845525E-023
  -9.3649999999999997E-002    -4.2235969653201062E-023
  -9.2799999999999994E-002    -7.8962292760346598E-023
  -9.1950000000000004E-002    -1.0928310130862576E-022
  -9.1100000000000000E-002    -8.6136116356688249E-023
  -9.0249999999999997E-002     7.6421414844398606E-023
  -8.9399999999999993E-002     4.9099865775101762E-022
  -8.8549999999999990E-002     1.2380078151556383E-021
  -8.7700000000000000E-002     2.2368195105986504E-021
  -8.6849999999999997E-002     3.0486430364304667E-021
  -8.5999999999999993E-002     2.6729544248496596E-021
  -8.5150000000000003E-002    -5.0622518552021154E-022
  -8.4300000000000000E-002    -8.3679638928710949E-021
  -8.3449999999999996E-002    -2.2003794252558890E-020
  -8.2600000000000007E-002    -3.9811650730266026E-020
  -8.1749999999999989E-002    -5.4993196984371867E-020
  -8.0900000000000000E-002    -5.3449478922576481E-020
  -8.0049999999999996E-002    -1.3989311431862390E-020
  -7.9199999999999993E-002     8.6540818296970282E-020
  -7.8350000000000003E-002     2.6082351406587188E-019
  -7.7499999999999999E-002     4.9092802558879553E-019
  -7.6649999999999996E-002     7.0435531245815825E-019
  -7.5800000000000006E-002     7.5652246298247994E-019
  -7.4949999999999989E-002     4.3658993501671619E-019
  -7.4099999999999999E-002    -4.8308095679187243E-019
  -7.3249999999999996E-002    -2.1384017789646521E-018
  -7.2399999999999992E-002    -4.4083883095775330E-018
  -7.1550000000000002E-002    -6.7284784084960983E-018
  -7.0699999999999999E-002    -7.9604267345412799E-018
  -6.9849999999999995E-002    -6.4362927845217830E-018
  -6.9000000000000006E-002    -3.0676545244721385E-019
  -6.8149999999999988E-002     1.1717903183142875E-017
  -6.7299999999999999E-002     2.9265291477724166E-017
  -6.6449999999999995E-002     4.9065673464239165E-017
  -6.5599999999999992E-002     6.4055921460354574E-017
  -6.4750000000000002E-002     6.3499549460280514E-017
  -6.3899999999999998E-002     3.4846795209265064E-017
  -6.3049999999999995E-002    -3.2186870634109274E-017
  -6.2199999999999998E-002    -1.3947688473247066E-016
  -6.1350000000000002E-002    -2.7343586609888291E-016
  -6.0499999999999998E-002    -3.9939184598851517E-016
  -5.9650000000000002E-002    -4.6072344697137611E-016
  -5.8799999999999998E-002    -3.8631668558559540E-016
  -5.7950000000000002E-002    -1.0883626865322027E-016
  -5.7099999999999998E-002     4.0644542623930474E-016
  -5.6249999999999994E-002     1.1268475499431929E-015
  -5.5400000000000005E-002     1.9212230578445093E-015
  -5.4550000000000001E-002     2.5467337002508282E-015
  -5.3699999999999998E-002     2.6690703453241044E-015
  -5.2849999999999994E-002     1.9282188730425685E-015
  -5.2000000000000005E-002     5.1934815456115138E-017
  -5.1150000000000001E-002    -2.9970477583797942E-015
  -5.0299999999999997E-002    -6.8737013986815012E-015
  -4.9449999999999994E-002    -1.0754803753305144E-014
  -4.8600000000000004E-002    -1.3354823192362699E-014
  -4.7750000000000001E-002    -1.3106238088357237E-014
  -4.6899999999999997E-002    -8.5273560957399276E-015
  -4.6049999999999994E-002     1.2510130130485911E-015
  -4.5200000000000004E-002     1.5895109585969507E-014
  -4.4350000000000001E-002     3.3374754284992874E-014
  -4.3499999999999997E-002     4.9770401520778267E-014
  -4.2649999999999993E-002     5.9580293718459677E-014
  -4.1800000000000004E-002     5.6657760851850364E-014
  -4.0950000000000000E-002     3.5768578361088760E-014
  -4.0099999999999997E-002    -5.4372302718354128E-015
  -3.9249999999999993E-002    -6.4456946581656963E-014
  -3.8400000000000004E-002    -1.3255755175916913E-013
  -3.7550000000000000E-002    -1.9463563882912351E-013
  -3.6699999999999997E-002    -2.3085090944149508E-013
  -3.5850000000000007E-002    -2.2025885116243858E-013
  -3.5000000000000003E-002    -1.4617781593764442E-013
  -3.4150000000000000E-002    -2.4344211974972595E-015
  -3.3299999999999996E-002     2.0092437641208936E-013
  -3.2450000000000007E-002     4.3421445948960271E-013
  -3.1600000000000003E-002     6.4873082226836353E-013
  -3.0750000000000000E-002     7.8262535633344317E-013
  -2.9899999999999996E-002     7.7226163995928957E-013
  -2.9050000000000006E-002     5.6787567240453456E-013
  -2.8200000000000003E-002     1.5086366758981722E-013
  -2.7349999999999999E-002    -4.5123292181113378E-013
  -2.6499999999999996E-002    -1.1565669972801296E-012
  -2.5650000000000006E-002    -1.8317656673940063E-012
  -2.4800000000000003E-002    -2.3081866292453399E-012
  -2.3949999999999999E-002    -2.4115343053294600E-012
  -2.3099999999999996E-002    -2.0013807883797330E-012
  -2.2250000000000006E-002    -1.0137873031474801E-012
  -2.1400000000000002E-002     5.0230351279111860E-013
  -2.0549999999999999E-002     2.3651182598361845E-012
  -1.9699999999999995E-002     4.2653812494536041E-012
  -1.8850000000000006E-002     5.8019504521438108E-012
  -1.8000000000000002E-002     6.5469272872854079E-012
  -1.7149999999999999E-002     6.1324133994928774E-012
  -1.6299999999999995E-002     4.3444410973252301E-012
  -1.5450000000000005E-002     1.2048661568332468E-012
  -1.4600000000000002E-002    -2.9792915879781997E-012
  -1.3749999999999998E-002    -7.6164978622181763E-012
  -1.2899999999999995E-002    -1.1891240219332021E-011
  -1.2050000000000005E-002    -1.4883205234458347E-011
  -1.1200000000000002E-002    -1.5731019399644113E-011
  -1.0349999999999998E-002    -1.3814607034580719E-011
  -9.5000000000000084E-003    -8.9218836864568902E-012
  -8.6500000000000049E-003    -1.3633845682124245E-012
  -7.8000000000000014E-003     7.9964101986615171E-012
  -6.9499999999999978E-003     1.7809753130526364E-011
  -6.1000000000000082E-003     2.6418887069489545E-011
  -5.2500000000000047E-003     3.2112008687386787E-011
  -4.4000000000000011E-003     3.3423195805004154E-011
  -3.5499999999999976E-003     2.9424632413061950E-011
  -2.7000000000000079E-003     1.9955722307274321E-011
  -1.8500000000000044E-003     5.7406998116627121E-012
  -1.0000000000000009E-003    -1.1636229341127713E-011
  -1.4999999999999736E-004    -2.9904463259630752E-011
   6.9999999999999230E-004    -4.6407996021485975E-011
   1.5499999999999958E-003    -5.8487944536700953E-011
   2.3999999999999994E-003    -6.3884264549583694E-011
   3.2500000000000029E-003    -6.1089862748168453E-011
   4.0999999999999925E-003    -4.9599197947051708E-011
   4.9499999999999961E-003    -3.0013614817786594E-011
   5.7999999999999996E-003    -3.9932343338579476E-012
   6.6499999999999893E-003     2.5926779992808780E-011
   7.5000000000000067E-003     5.6615234089296385E-011
   8.3499999999999963E-003     8.4667627801022432E-011
   9.1999999999999860E-003     1.0672312434225348E-010
   1.0050000000000003E-002     1.1974148195005629E-010
   1.0899999999999993E-002     1.2122797323571043E-010
   1.1750000000000010E-002     1.0941764908764427E-010
   1.2600000000000000E-002     8.3446012981190041E-011
   1.3449999999999990E-002     4.3534729653844747E-011
   1.4300000000000007E-002    -8.7945580903170922E-012
   1.5149999999999997E-002    -7.0495587767561978E-011
   1.5999999999999986E-002    -1.3681781179829366E-010
   1.6850000000000004E-002    -2.0126198780669988E-010
   1.7699999999999994E-002    -2.5577923386164565E-010
   1.8549999999999983E-002    -2.9131168006195918E-010
   1.9400000000000001E-002    -2.9872979449137220E-010
   2.0249999999999990E-002    -2.7014440041031443E-010
   2.1100000000000008E-002    -2.0047520609117681E-010
   2.1949999999999997E-002    -8.9057753264319131E-011
   2.2799999999999987E-002     5.9008083382324492E-011
   2.3650000000000004E-002     2.3209860257436424E-010
   2.4499999999999994E-002     4.1219775021894746E-010
   2.5349999999999984E-002     5.7612277739473970E-010
   2.6200000000000001E-002     6.9788664880874848E-010
   2.7049999999999991E-002     7.5203649871670180E-010
   2.7900000000000008E-002     7.1759860024151611E-010
   2.8749999999999998E-002     5.8208384161027949E-010
   2.9599999999999987E-002     3.4490351196823237E-010
   3.0450000000000005E-002     1.9544266838518701E-011
   3.1299999999999994E-002    -3.6603531001945054E-010
   3.2149999999999984E-002    -7.7110273168538868E-010
   3.3000000000000002E-002    -1.1459584351695573E-009
   3.3849999999999991E-002    -1.4375332371143054E-009
   3.4700000000000009E-002    -1.5961457497450274E-009
   3.5549999999999998E-002    -1.5825557410944160E-009
   3.6399999999999988E-002    -1.3743390198187660E-009
   3.7250000000000005E-002    -9.7063936622963421E-010
   3.8099999999999995E-002    -3.9453481582720365E-010
   3.8949999999999985E-002     3.0744703815121835E-010
   3.9800000000000002E-002     1.0687589964443383E-009
   4.0649999999999992E-002     1.8089152999443555E-009
   4.1500000000000009E-002     2.4415883493210414E-009
   4.2349999999999999E-002     2.8838334834483164E-009
   4.3199999999999988E-002     3.0654332306042033E-009
   4.4050000000000006E-002     2.9373567967566303E-009
   4.4899999999999995E-002     2.4784573148277953E-009
   4.5749999999999985E-002     1.6997378271491868E-009
   4.6600000000000003E-002     6.4577193991927699E-010
   4.7449999999999992E-002    -6.0687821425512808E-010
   4.8299999999999982E-002    -1.9541806534325503E-009
   4.9149999999999999E-002    -3.2718397068287805E-009
   4.9999999999999989E-002    -4.4247905380645201E-009
   5.0850000000000006E-002    -5.2784693300010658E-009
   5.1699999999999996E-002    -5.7112263417602587E-009
   5.2549999999999986E-002    -5.6270970897642670E-009
   5.3400000000000003E-002    -4.9680118449158310E-009
   5.4249999999999993E-002    -3.7243268703111192E-009
   5.5099999999999982E-002    -1.9424500002450271E-009
   5.5950000000000000E-002     2.7170716005252897E-010
   5.6799999999999989E-002     2.7546199177129596E-009
   5.7650000000000007E-002     5.2932228939674964E-009
   5.8499999999999996E-002     7.6394840973467489E-009
   5.9349999999999986E-002     9.5310534156611643E-009
   6.0200000000000004E-002     1.0716721844360465E-008
   6.1049999999999993E-002     1.0984528566706403E-008
   6.1899999999999983E-002     1.0189644116378890E-008
   6.2750000000000000E-002     8.2786864850259764E-009
   6.3599999999999990E-002     5.3070622288741529E-009
   6.4450000000000007E-002     1.4463675296666605E-009
   6.5299999999999997E-002    -3.0202580451020290E-009
   6.6149999999999987E-002    -7.7156279382135125E-009
   6.7000000000000004E-002    -1.2198146793721512E-008
   6.7849999999999994E-002    -1.6001350422070646E-008
   6.8699999999999983E-002    -1.8679714769171075E-008
   6.9550000000000001E-002    -1.9856126503964096E-008
   7.0399999999999990E-002    -1.9265970496719518E-008
   7.1249999999999980E-002    -1.6792889332473579E-008
   7.2099999999999997E-002    -1.2492022397132683E-008
   7.2949999999999987E-002    -6.5977190139461497E-009
   7.3800000000000004E-002     4.8576274117614050E-010
   7.4649999999999994E-002     8.2103805650526077E-009
   7.5499999999999984E-002     1.5925430247361232E-008
   7.6350000000000001E-002     2.2930410746019228E-008
   7.7199999999999991E-002     2.8535267479781209E-008
   7.8049999999999981E-002     3.2122906086088060E-008
   7.8899999999999998E-002     3.3208603652592192E-008
   7.9749999999999988E-002     3.1491061099099311E-008
   8.0600000000000005E-002     2.6890416898059322E-008
   8.1449999999999995E-002     1.9569440657757419E-008
   8.2299999999999984E-002     9.9353895506684283E-009
   8.3150000000000002E-002    -1.3785579753080069E-009
   8.3999999999999991E-002    -1.3551732280503247E-008
   8.4849999999999981E-002    -2.5632096319827347E-008
   8.5699999999999998E-002    -3.6606372284972929E-008
   8.6549999999999988E-002    -4.5479229536018764E-008
   8.7400000000000005E-002    -5.1355633986031450E-008
   8.8249999999999995E-002    -5.3520053121154913E-008
   8.9099999999999985E-002    -5.1506070408863896E-008
   8.9950000000000002E-002    -4.5150575862677856E-008
   9.0799999999999992E-002    -3.4627506711679642E-008
   9.1649999999999981E-002    -2.0457320054898192E-008
   9.2499999999999999E-002    -3.4899965204772124E-009
   9.3349999999999989E-002     1.5138925206237418E-008
   9.4200000000000006E-002     3.4077805628177444E-008
   9.5049999999999996E-002     5.1850446071731198E-008
   9.5899999999999985E-002     6.6964250215108328E-008
   9.6750000000000003E-002     7.8027758986490210E-008
   9.7599999999999992E-002     8.3868829002853399E-008
   9.8449999999999982E-002     8.3643797770210059E-008
   9.9299999999999999E-002     7.6927724513640161E-008
  0.10014999999999999          6.3776715601119828E-008
  0.10099999999999998          4.4754906931772396E-008
  0.10185000000000000          2.0921585673209300E-008
  0.10269999999999999         -6.2229830714102575E-009
  0.10355000000000000         -3.4830372285307962E-008
  0.10439999999999999         -6.2829420730841627E-008
  0.10524999999999998         -8.8075056986871447E-008
  0.10610000000000000         -1.0850895606694454E-007
  0.10694999999999999         -1.2231950077057439E-007
  0.10779999999999998         -1.2808864492276008E-007
  0.10865000000000000         -1.2491425701010104E-007
  0.10949999999999999         -1.1249869549349951E-007
  0.11035000000000000         -9.1196735526642997E-008
  0.11119999999999999         -6.2019116436839910E-008
  0.11204999999999998         -2.6590287927194611E-008
  0.11290000000000000          1.2937869332943480E-008
  0.11374999999999999          5.4012103669119140E-008
  0.11459999999999998          9.3836918951386985E-008
  0.11545000000000000          1.2955765669731233E-007
  0.11629999999999999          1.5845631070764911E-007
  0.11715000000000000          1.7814744677909595E-007
  0.11799999999999999          1.8676040628394713E-007
  0.11884999999999998          1.8309440228110201E-007
  0.11970000000000000          1.6673390341233861E-007
  0.12054999999999999          1.3811429785133490E-007
  0.12139999999999998          9.8531060339012155E-008
  0.12225000000000000          5.0089773916093904E-008
  0.12309999999999999         -4.4015031924740642E-009
  0.12395000000000000         -6.1591828096834075E-008
  0.12479999999999999         -1.1778958827231259E-007
  0.12564999999999998         -1.6919515670163639E-007
  0.12650000000000000         -2.1215015160023383E-007
  0.12734999999999999         -2.4338800235806350E-007
  0.12819999999999998         -2.6026997771339360E-007
  0.12905000000000000         -2.6099138921709626E-007
  0.12989999999999999         -2.4474284107158703E-007
  0.13074999999999998         -2.1181294494723041E-007
  0.13159999999999999         -1.6362167202009346E-007
  0.13245000000000001         -1.0267643018517029E-007
  0.13329999999999997         -3.2448662571141220E-008
  0.13414999999999999          4.2826025747235638E-008
  0.13500000000000001          1.1841358863214292E-007
  0.13584999999999997          1.8939633542008841E-007
  0.13669999999999999          2.5101355089580175E-007
  0.13755000000000001          2.9900135838609574E-007
  0.13839999999999997          3.2990335577662789E-007
  0.13924999999999998          3.4132594097294015E-007
  0.14010000000000000          3.3211657049752024E-007
  0.14094999999999996          3.0245055587570084E-007
  0.14179999999999998          2.5382112827245889E-007
  0.14265000000000000          1.8893563733343293E-007
  0.14350000000000002          1.1152941675024769E-007
  0.14434999999999998          2.6115039660667324E-008
  0.14520000000000000         -6.2312182538525265E-008
  0.14605000000000001         -1.4858941997204396E-007
  0.14689999999999998         -2.2770087981548978E-007
  0.14774999999999999         -2.9507241783310321E-007
  0.14860000000000001         -3.4683043652007122E-007
  0.14944999999999997         -3.8001270573087158E-007
  0.15029999999999999         -3.9272291596695870E-007
  0.15115000000000001         -3.8422315154616031E-007
  0.15199999999999997         -3.5496173390668750E-007
  0.15284999999999999         -3.0653640180140891E-007
  0.15370000000000000         -2.4159501826839692E-007
  0.15454999999999997         -1.6367941111139428E-007
  0.15539999999999998         -7.7019754287268701E-008
  0.15625000000000000          1.3708882012473909E-008
  0.15709999999999996          1.0365522212081838E-007
  0.15794999999999998          1.8806989314502654E-007
  0.15880000000000000          2.6257628097943549E-007
  0.15965000000000001          3.2341739940717409E-007
  0.16049999999999998          3.6766292456301329E-007
  0.16134999999999999          3.9336226367490767E-007
  0.16220000000000001          3.9963393362928175E-007
  0.16304999999999997          3.8668423882062509E-007
  0.16389999999999999          3.5575476342516211E-007
  0.16475000000000001          3.0900252022470075E-007
  0.16559999999999997          2.4932308640956694E-007
  0.16644999999999999          1.8013073514923236E-007
  0.16730000000000000          1.0511504562095820E-007
  0.16814999999999997          2.7994070811095601E-008
  0.16899999999999998         -4.7714829448142305E-008
  0.16985000000000000         -1.1888807562138802E-007
  0.17069999999999996         -1.8293893159157385E-007
  0.17154999999999998         -2.3790246523474446E-007
  0.17240000000000000         -2.8246195212903529E-007
  0.17325000000000002         -3.1592201469905215E-007
  0.17409999999999998         -3.3814020777576565E-007
  0.17494999999999999         -3.4943114488899321E-007
  0.17580000000000001         -3.5045806513928874E-007
  0.17664999999999997         -3.4212535543595943E-007
  0.17749999999999999         -3.2548103891390666E-007
  0.17835000000000001         -3.0163408128740163E-007
  0.17919999999999997         -2.7168760758592416E-007
  0.18004999999999999         -2.3668542870342168E-007
  0.18090000000000001         -1.9756973710830241E-007
  0.18174999999999997         -1.5514809551129861E-007
  0.18259999999999998         -1.1007176171214615E-007
  0.18345000000000000         -6.2829202217899415E-008
  0.18429999999999996         -1.3761379511382038E-008
  0.18514999999999998          3.6895177392308121E-008
  0.18600000000000000          8.8933814504647653E-008
  0.18684999999999996          1.4207401075371084E-007
  0.18769999999999998          1.9583671954907370E-007
  0.18855000000000000          2.4941469379284453E-007
  0.18940000000000001          3.0156016930534430E-007
  0.19024999999999997          3.5051199488180229E-007
  0.19109999999999999          3.9398342319800212E-007
  0.19195000000000001          4.2922420506575531E-007
  0.19279999999999997          4.5316266788633025E-007
  0.19364999999999999          4.6261508665466796E-007
  0.19450000000000001          4.5454408479953905E-007
  0.19534999999999997          4.2633812062562240E-007
  0.19619999999999999          3.7607500529807968E-007
  0.19705000000000000          3.0273558138511802E-007
  0.19789999999999996          2.0633824121662230E-007
  0.19874999999999998          8.7972526405210044E-008
  0.19960000000000000         -5.0280057971228530E-008
  0.20044999999999996         -2.0554301148447838E-007
  0.20129999999999998         -3.7444587701838627E-007
  0.20215000000000000         -5.5350954934747514E-007
  0.20300000000000001         -7.3960590818134925E-007
  0.20384999999999998         -9.3046010075847833E-007
  0.20469999999999999         -1.1251552797457301E-006
  0.20555000000000001         -1.3246245274006245E-006
  0.20639999999999997         -1.5320930677230467E-006
  0.20724999999999999         -1.7534283229483021E-006
  0.20810000000000001         -1.9974001352667378E-006
  0.20894999999999997         -2.2758297922156414E-006
  0.20979999999999999         -2.6036373481260240E-006
  0.21065000000000000         -2.9988148474776137E-006
  0.21149999999999997         -3.4823068402474551E-006
  0.21234999999999998         -4.0778958680082037E-006
  0.21320000000000000         -4.8121500954670838E-006
  0.21404999999999996         -5.7144200194342405E-006
  0.21489999999999998         -6.8169568047999385E-006
  0.21575000000000000         -8.1552322873500967E-006
  0.21659999999999996         -9.7684006749532687E-006
  0.21744999999999998         -1.1699945716378635E-005
  0.21829999999999999         -1.3998534137734826E-005
  0.21915000000000001         -1.6718993250098331E-005
  0.21999999999999997         -1.9923421822276916E-005
  0.22084999999999999         -2.3682385379601374E-005
  0.22170000000000001         -2.8076181889484123E-005
  0.22254999999999997         -3.3196098251752429E-005
  0.22339999999999999         -3.9145756465205870E-005
  0.22425000000000000         -4.6042380894388422E-005
  0.22509999999999997         -5.4018008948000554E-005
  0.22594999999999998         -6.3220637076912960E-005
  0.22680000000000000         -7.3815550478276064E-005
  0.22764999999999996         -8.5986310479466735E-005
  0.22849999999999998         -9.9935712219496444E-005
  0.22935000000000000         -1.1588690880451687E-004
  0.23019999999999996         -1.3408403701441231E-004
  0.23104999999999998         -1.5479318997396266E-004
  0.23190000000000000         -1.7830326372376441E-004
  0.23275000000000001         -2.0492624532353977E-004
  0.23359999999999997         -2.3499817773233307E-004
  0.23444999999999999         -2.6888002495109684E-004
  0.23530000000000001         -3.0695793584143967E-004
  0.23614999999999997         -3.4964377729307047E-004
  0.23699999999999999         -3.9737567061426350E-004
  0.23785000000000001         -4.5061771213152416E-004
  0.23869999999999997         -5.0985927039276762E-004
  0.23954999999999999         -5.7561411446869451E-004
  0.24040000000000000         -6.4841858502917929E-004
  0.24124999999999996         -7.2882926219609097E-004
  0.24209999999999998         -8.1742007008384922E-004
  0.24295000000000000         -9.1477937365244222E-004
  0.24379999999999996         -1.0215044825689068E-003
  0.24464999999999998         -1.1381982337715472E-003
  0.24550000000000000         -1.2654648450070056E-003
  0.24634999999999996         -1.4039018526743117E-003
  0.24719999999999998         -1.5540956918798433E-003
  0.24804999999999999         -1.7166127716066045E-003
  0.24890000000000001         -1.8919917414231251E-003
  0.24974999999999997         -2.0807334617794437E-003
  0.25059999999999999         -2.2832915846097250E-003
  0.25145000000000001         -2.5000599789632093E-003
  0.25229999999999997         -2.7313597059309444E-003
  0.25314999999999999         -2.9774274104773218E-003
  0.25400000000000000         -3.2383989297539773E-003
  0.25484999999999997         -3.5142937868146954E-003
  0.25569999999999998         -3.8049995101586305E-003
  0.25655000000000000         -4.1102494457501181E-003
  0.25739999999999996         -4.4296084637548876E-003
  0.25824999999999998         -4.7624524890975319E-003
  0.25910000000000000         -5.1079419096011812E-003
  0.25994999999999996         -5.4650056735962042E-003
  0.26079999999999998         -5.8323111651454327E-003
  0.26164999999999999         -6.2082520868862959E-003
  0.26249999999999996         -6.5909263051509024E-003
  0.26334999999999997         -6.9781110099080270E-003
  0.26419999999999999         -7.3672562380503502E-003
  0.26505000000000001         -7.7554614077423398E-003
  0.26589999999999997         -8.1394615162893261E-003
  0.26674999999999999         -8.5156135435870538E-003
  0.26760000000000000         -8.8798981244348190E-003
  0.26844999999999997         -9.2279175200764615E-003
  0.26929999999999998         -9.5548974893869074E-003
  0.27015000000000000         -9.8556997452702612E-003
  0.27099999999999996         -1.0124823775971745E-002
  0.27184999999999998         -1.0356441061853999E-002
  0.27270000000000000         -1.0544416940163873E-002
  0.27354999999999996         -1.0682349699102315E-002
  0.27439999999999998         -1.0763608147665934E-002
  0.27524999999999999         -1.0781388813921211E-002
  0.27609999999999996         -1.0728775636416372E-002
  0.27694999999999997         -1.0598797709858658E-002
  0.27779999999999999         -1.0384526143863562E-002
  0.27865000000000001         -1.0079150991524146E-002
  0.27949999999999997         -9.6760589285814630E-003
  0.28034999999999999         -9.1689634756765837E-003
  0.28120000000000001         -8.5519874199783685E-003
  0.28204999999999997         -7.8197843165373586E-003
  0.28289999999999998         -6.9676664195808874E-003
  0.28375000000000000         -5.9916994937467150E-003
  0.28459999999999996         -4.8888245972466974E-003
  0.28544999999999998         -3.6569818477305742E-003
  0.28630000000000000         -2.2952194359567146E-003
  0.28714999999999996         -8.0381766052485429E-004
  0.28799999999999998          8.1559950892037890E-004
  0.28885000000000000          2.5600085005172643E-003
  0.28969999999999996          4.4249042410795334E-003
  0.29054999999999997          6.4041929897667117E-003
  0.29139999999999999          8.4901629366439749E-003
  0.29224999999999995          1.0673449770523607E-002
  0.29309999999999997          1.2943036704070106E-002
  0.29394999999999999          1.5286248580632581E-002
  0.29480000000000001          1.7688790695243976E-002
  0.29564999999999997          2.0134792746816895E-002
  0.29649999999999999          2.2606878567268153E-002
  0.29735000000000000          2.5086297643059384E-002
  0.29819999999999997          2.7553017043471163E-002
  0.29904999999999998          2.9985903014193963E-002
  0.29990000000000000          3.2362849536577816E-002
  0.30074999999999996          3.4661005895445345E-002
  0.30159999999999998          3.6856984677590764E-002
  0.30245000000000000          3.8927116504633735E-002
  0.30329999999999996          4.0847671000235904E-002
  0.30414999999999998          4.2595142292200433E-002
  0.30499999999999999          4.4146530182749853E-002
  0.30584999999999996          4.5479605454409794E-002
  0.30669999999999997          4.6573218266814195E-002
  0.30754999999999999          4.7407566580598914E-002
  0.30840000000000001          4.7964489952758239E-002
  0.30924999999999997          4.8227731215037553E-002
  0.31009999999999999          4.8183167192443054E-002
  0.31095000000000000          4.7819092504678376E-002
  0.31179999999999997          4.7126442152296930E-002
  0.31264999999999998          4.6098959017681067E-002
  0.31350000000000000          4.4733339342797010E-002
  0.31434999999999996          4.3029398445281711E-002
  0.31519999999999998          4.0990172447233013E-002
  0.31605000000000000          3.8621964958635104E-002
  0.31689999999999996          3.5934378202551930E-002
  0.31774999999999998          3.2940287491990107E-002
  0.31859999999999999          2.9655778884312031E-002
  0.31944999999999996          2.6100040760349622E-002
  0.32029999999999997          2.2295232784751561E-002
  0.32114999999999999          1.8266331110062789E-002
  0.32199999999999995          1.4040858738215884E-002
  0.32284999999999997          9.6486811525405679E-003
  0.32369999999999999          5.1216982351798843E-003
  0.32455000000000001          4.9351581172556538E-004
  0.32539999999999997         -4.2008358428237977E-003
  0.32624999999999998         -8.9252899928703808E-003
  0.32710000000000000         -1.3643107215278474E-002
  0.32794999999999996         -1.8317247830665503E-002
  0.32879999999999998         -2.2910810224224826E-002
  0.32965000000000000         -2.7387392216332490E-002
  0.33049999999999996         -3.1711456698931238E-002
  0.33134999999999998         -3.5848731198626985E-002
  0.33220000000000000         -3.9766597396248465E-002
  0.33304999999999996         -4.3434397689968839E-002
  0.33389999999999997         -4.6823756669050948E-002
  0.33474999999999999         -4.9908882091894001E-002
  0.33559999999999995         -5.2666866188175537E-002
  0.33644999999999997         -5.5077871383604537E-002
  0.33729999999999999         -5.7125309343624156E-002
  0.33815000000000001         -5.8795989621800007E-002
  0.33899999999999997         -6.0080276269711623E-002
  0.33984999999999999         -6.0972112199794551E-002
  0.34070000000000000         -6.1469024368123348E-002
  0.34154999999999996         -6.1572113681379582E-002
  0.34239999999999998         -6.1285986754455651E-002
  0.34325000000000000         -6.0618698849002908E-002