 -0.12000000000000000          0.0000000000000000
 -0.11914999999999999          0.0000000000000000
 -0.11830000000000000          0.0000000000000000
 -0.11745000000000000         -4.7358934040406326E-018
 -0.11660000000000000         -2.1687499672164712E-017
 -0.11574999999999999         -4.1258909586609001E-017
 -0.11490000000000000         -4.5439610499017189E-018
 -0.11405000000000000          2.1570858142820656E-016
 -0.11320000000000000          7.9099823379783382E-016
 -0.11234999999999999          1.8617486190499714E-015
 -0.11150000000000000          3.4403699531066947E-015
 -0.11065000000000000          5.3491019560234568E-015
 -0.10979999999999999          7.2400950501540515E-015
 -0.10894999999999999          8.6984035557848847E-015
 -0.10810000000000000          9.3711621455406539E-015
 -0.10725000000000000          9.0392061140729531E-015
 -0.10639999999999999          7.5762825402676255E-015
 -0.10554999999999999          4.8124981514730892E-015
 -0.10470000000000000          3.8387248853356991E-016
 -0.10385000000000000         -6.3419699361897987E-015
 -0.10299999999999999         -1.6233678413003417E-014
 -0.10214999999999999         -3.0302716217044284E-014
 -0.10130000000000000         -4.9601531112981915E-014
 -0.10045000000000000         -7.5056767016508315E-014
  -9.9599999999999994E-002    -1.0701160918073005E-013
  -9.8750000000000004E-002    -1.4419060093613799E-013
  -9.7900000000000001E-002    -1.8204254487981273E-013
  -9.7049999999999997E-002    -2.1101889762670317E-013
  -9.6199999999999994E-002    -2.1608289470543196E-013
  -9.5349999999999990E-002    -1.7910695114378125E-013
  -9.4500000000000001E-002    -8.5217256711225005E-014
  -9.3649999999999997E-002     6.7694431607823995E-014
  -9.2799999999999994E-002     2.5973629790654274E-013
  -9.1950000000000004E-002     4.4576291223082276E-013
  -9.1100000000000000E-002     5.6396214928711085E-013
  -9.0249999999999997E-002     5.5883629567456429E-013
  -8.9399999999999993E-002     4.1436978502585266E-013
  -8.8549999999999990E-002     1.8498570022581197E-013
  -8.7700000000000000E-002     6.1427509407289072E-015
  -8.6849999999999997E-002     6.7529697995281988E-014
  -8.5999999999999993E-002     5.4252586342588657E-013
  -8.5150000000000003E-002     1.4868479404662845E-012
  -8.4300000000000000E-002     2.7411552342763270E-012
  -8.3449999999999996E-002     3.8870135163303810E-012
  -8.2600000000000007E-002     4.3028626207389887E-012
  -8.1749999999999989E-002     3.3406147627599631E-012
  -8.0900000000000000E-002     5.9730804439801875E-013
  -8.0049999999999996E-002    -3.7966507253169124E-012
  -7.9199999999999993E-002    -8.9893596684396570E-012
  -7.8350000000000003E-002    -1.3437682469952319E-011
  -7.7499999999999999E-002    -1.5226265383782424E-011
  -7.6649999999999996E-002    -1.2652529273235533E-011
  -7.5800000000000006E-002    -4.9418839566251753E-012
  -7.4949999999999989E-002     7.1351511794257432E-012
  -7.4099999999999999E-002     2.1001171896976803E-011
  -7.3249999999999996E-002     3.2560152007655659E-011
  -7.2399999999999992E-002     3.7078209569249577E-011
  -7.1550000000000002E-002     3.0496304095748079E-011
  -7.0699999999999999E-002     1.0826822080046029E-011
  -6.9849999999999995E-002    -2.0810261028162953E-011
  -6.9000000000000006E-002    -5.9907938418606008E-011
  -6.8149999999999988E-002    -9.9245633639418626E-011
  -6.7299999999999999E-002    -1.3040883342521549E-010
  -6.6449999999999995E-002    -1.4574272951706421E-010
  -6.5599999999999992E-002    -1.4013352554731791E-010
  -6.4750000000000002E-002    -1.1202078149006873E-010
  -6.3899999999999998E-002    -6.3279647778898465E-011
  -6.3049999999999995E-002     1.9828168787119997E-012
  -6.2199999999999998E-002     7.9237669390981102E-011
  -6.1350000000000002E-002     1.6516617757360984E-010
  -6.0499999999999998E-002     2.5830679061029890E-010
  -5.9650000000000002E-002     3.5820104454098752E-010
  -5.8799999999999998E-002     4.6308259088480230E-010
  -5.7950000000000002E-002     5.6678999579371655E-010
  -5.7099999999999998E-002     6.5606302907072913E-010
  -5.6249999999999994E-002     7.0951276742412927E-010
  -5.5400000000000005E-002     6.9921527253712074E-010
  -5.4550000000000001E-002     5.9515205175738553E-010
  -5.3699999999999998E-002     3.7180427036717068E-010
  -5.2849999999999994E-002     1.5426742778125143E-011
  -5.2000000000000005E-002    -4.6985852936262439E-010
  -5.1150000000000001E-002    -1.0587750407210386E-009
  -5.0299999999999997E-002    -1.7052817076429618E-009
  -4.9449999999999994E-002    -2.3464351966225357E-009
  -4.8600000000000004E-002    -2.9084367925811881E-009
  -4.7750000000000001E-002    -3.3129680193886265E-009
  -4.6899999999999997E-002    -3.4819237620815741E-009
  -4.6049999999999994E-002    -3.3393277305983278E-009
  -4.5200000000000004E-002    -2.8102777438304089E-009
  -4.4350000000000001E-002    -1.8180387544806025E-009
  -4.3499999999999997E-002    -2.8085515129928268E-010
  -4.2649999999999993E-002     1.8895282412639156E-009
  -4.1800000000000004E-002     4.7867492275957920E-009
  -4.0950000000000000E-002     8.5062731793999118E-009
  -4.0099999999999997E-002     1.3140834222377633E-008
  -3.9249999999999993E-002     1.8777173848836984E-008
  -3.8400000000000004E-002     2.5496599901409426E-008
  -3.7550000000000000E-002     3.3380643505732180E-008
  -3.6699999999999997E-002     4.2522248395333505E-008
  -3.5850000000000007E-002     5.3040986499091725E-008
  -3.5000000000000003E-002     6.5099616049232418E-008
  -3.4150000000000000E-002     7.8919253033504082E-008
  -3.3299999999999996E-002     9.4791054514202947E-008
  -3.2450000000000007E-002     1.1308363056197739E-007
  -3.1600000000000003E-002     1.3424685069473635E-007
  -3.0750000000000000E-002     1.5881473439135839E-007
  -2.9899999999999996E-002     1.8740938606410780E-007
  -2.9050000000000006E-002     2.2074922425374434E-007
  -2.8200000000000003E-002     2.5966016025900656E-007
  -2.7349999999999999E-002     3.0509186926696784E-007
  -2.6499999999999996E-002     3.5813482291439918E-007
  -2.5650000000000006E-002     4.2003795181575109E-007
  -2.4800000000000003E-002     4.9222539406701463E-007
  -2.3949999999999999E-002     5.7630991434174863E-007
  -2.3099999999999996E-002     6.7410887556546685E-007
  -2.2250000000000006E-002     7.8766136036543342E-007
  -2.1400000000000002E-002     9.1924743364315893E-007
  -2.0549999999999999E-002     1.0714201922580861E-006
  -1.9699999999999995E-002     1.2470336590451065E-006
  -1.8850000000000006E-002     1.4492820675717143E-006
  -1.8000000000000002E-002     1.6817363035308601E-006
  -1.7149999999999999E-002     1.9483796920126956E-006
  -1.6299999999999995E-002     2.2536446263207483E-006
  -1.5450000000000005E-002     2.6024404028975878E-006
  -1.4600000000000002E-002     3.0001911708268495E-006
  -1.3749999999999998E-002     3.4528719470630417E-006
  -1.2899999999999995E-002     3.9670562674529436E-006
  -1.2050000000000005E-002     4.5499659255673440E-006
  -1.1200000000000002E-002     5.2095327942621847E-006
  -1.0349999999999998E-002     5.9544486999781493E-006
  -9.5000000000000084E-003     6.7942276192493000E-006
  -8.6500000000000049E-003     7.7392316261310763E-006
  -7.8000000000000014E-003     8.8007021552988126E-006
  -6.9499999999999978E-003     9.9907788500934187E-006
  -6.1000000000000082E-003     1.1322487303921395E-005
  -5.2500000000000047E-003     1.2809748315635557E-005
  -4.4000000000000011E-003     1.4467401880455501E-005
  -3.5499999999999976E-003     1.6311184929587398E-005
  -2.7000000000000079E-003     1.8357787527542586E-005
  -1.8500000000000044E-003     2.0624824011251784E-005
  -1.0000000000000009E-003     2.3130842992559235E-005
  -1.4999999999999736E-004     2.5895278878438736E-005
   6.9999999999999230E-004     2.8938395495885648E-005
   1.5499999999999958E-003     3.2281168795442303E-005
   2.3999999999999994E-003     3.5945130529330965E-005
   3.2500000000000029E-003     3.9952260319156049E-005
   4.0999999999999925E-003     4.4324718604098404E-005
   4.9499999999999961E-003     4.9084778934626740E-005
   5.7999999999999996E-003     5.4254589862172981E-005
   6.6499999999999893E-003     5.9855998813079427E-005
   7.5000000000000067E-003     6.5910335781193754E-005
   8.3499999999999963E-003     7.2438270721123822E-005
   9.1999999999999860E-003     7.9459291886461290E-005
   1.0050000000000003E-002     8.6991650899043127E-005
   1.0899999999999993E-002     9.5051734877995284E-005
   1.1750000000000010E-002     1.0365368172997121E-004
   1.2600000000000000E-002     1.1280917559277606E-004
   1.3449999999999990E-002     1.2252645627906729E-004
   1.4300000000000007E-002     1.3281018853968777E-004
   1.5149999999999997E-002     1.4366094383963112E-004
   1.5999999999999986E-002     1.5507453290209821E-004
   1.6850000000000004E-002     1.6704170443646412E-004
   1.7699999999999994E-002     1.7954767750187617E-004
   1.8549999999999983E-002     1.9257131070249200E-004
   1.9400000000000001E-002     2.0608514637424194E-004
   2.0249999999999990E-002     2.2005433477246384E-004
   2.1100000000000008E-002     2.3443661106992378E-004
   2.1949999999999997E-002     2.4918137255710302E-004
   2.2799999999999987E-002     2.6422945978154909E-004
   2.3650000000000004E-002     2.7951321837388468E-004
   2.4499999999999994E-002     2.9495543263824707E-004
   2.5349999999999984E-002     3.1046984233178647E-004
   2.6200000000000001E-002     3.2596072730152557E-004
   2.7049999999999991E-002     3.4132280397733867E-004
   2.7900000000000008E-002     3.5644162217702473E-004
   2.8749999999999998E-002     3.7119338647089708E-004
   2.9599999999999987E-002     3.8544600235127668E-004
   3.0450000000000005E-002     3.9905773612438240E-004
   3.1299999999999994E-002     4.1187942092921182E-004
   3.2149999999999984E-002     4.2375477879466622E-004
   3.3000000000000002E-002     4.3452122574272627E-004
   3.3849999999999991E-002     4.4401005287487277E-004
   3.4700000000000009E-002     4.5204884636016205E-004
   3.5549999999999998E-002     4.5846239112352650E-004
   3.6399999999999988E-002     4.6307360518799140E-004
   3.7250000000000005E-002     4.6570541914020726E-004
   3.8099999999999995E-002     4.6618288145799079E-004
   3.8949999999999985E-002     4.6433386532891241E-004
   3.9800000000000002E-002     4.5999158933532900E-004
   4.0649999999999992E-002     4.5299750077887932E-004
   4.1500000000000009E-002     4.4320131689917156E-004
   4.2349999999999999E-002     4.3046489934945030E-004
   4.3199999999999988E-002     4.1466455842819168E-004
   4.4050000000000006E-002     3.9569105841769244E-004
   4.4899999999999995E-002     3.7345403140744387E-004
   4.5749999999999985E-002     3.4788360411484290E-004
   4.6600000000000003E-002     3.1893152122758155E-004
   4.7449999999999992E-002     2.8657454531158343E-004
   4.8299999999999982E-002     2.5081414982700652E-004
   4.9149999999999999E-002     2.1167957170093374E-004
   4.9999999999999989E-002     1.6922898567678208E-004
   5.0850000000000006E-002     1.2354933551905336E-004
   5.1699999999999996E-002     7.4759658011616840E-005
   5.2549999999999986E-002     2.3008586951119653E-005
   5.3400000000000003E-002    -3.1523568018389502E-005
   5.4249999999999993E-002    -8.8623527951192443E-005
   5.5099999999999982E-002    -1.4804763304296522E-004
   5.5950000000000000E-002    -2.0952153362537729E-004
   5.6799999999999989E-002    -2.7274110325307830E-004
   5.7650000000000007E-002    -3.3737549962246558E-004
   5.8499999999999996E-002    -4.0306653097277139E-004
   5.9349999999999986E-002    -4.6943382617108326E-004
   6.0200000000000004E-002    -5.3607549695077036E-004
   6.1049999999999993E-002    -6.0257193694090235E-004
   6.1899999999999983E-002    -6.6848775958103560E-004
   6.2750000000000000E-002    -7.3337622156792524E-004
   6.3599999999999990E-002    -7.9678244915109533E-004
   6.4450000000000007E-002    -8.5824855286768451E-004
   6.5299999999999997E-002    -9.1731599004557290E-004
   6.6149999999999987E-002    -9.7353118127676630E-004
   6.7000000000000004E-002    -1.0264494168636575E-003
   6.7849999999999994E-002    -1.0756399034632146E-003
   6.8699999999999983E-002    -1.1206894050998259E-003
   6.9550000000000001E-002    -1.1612073545022906E-003
   7.0399999999999990E-002    -1.1968290756717204E-003
   7.1249999999999980E-002    -1.2272205128021801E-003
   7.2099999999999997E-002    -1.2520813899683314E-003
   7.2949999999999987E-002    -1.2711487045143259E-003
   7.3800000000000004E-002    -1.2842003072616255E-003
   7.4649999999999994E-002    -1.2910573449503211E-003
   7.5499999999999984E-002    -1.2915868395323292E-003
   7.6350000000000001E-002    -1.2857040062640862E-003
   7.7199999999999991E-002    -1.2733724326188900E-003
   7.8049999999999981E-002    -1.2546079636501092E-003
   7.8899999999999998E-002    -1.2294745301248708E-003
   7.9749999999999988E-002    -1.1980881007375209E-003
   8.0600000000000005E-002    -1.1606126983667762E-003
   8.1449999999999995E-002    -1.1172619306703540E-003
   8.2299999999999984E-002    -1.0682938228872673E-003
   8.3150000000000002E-002    -1.0140135892035525E-003
   8.3999999999999991E-002    -9.5476563487079742E-004
   8.4849999999999981E-002    -8.9093433481169293E-004
   8.5699999999999998E-002    -8.2293984959923435E-004
   8.6549999999999988E-002    -7.5123391501540190E-004
   8.7400000000000005E-002    -6.7629202959170820E-004
   8.8249999999999995E-002    -5.9861581295615198E-004
   8.9099999999999985E-002    -5.1872110578176950E-004
   8.9950000000000002E-002    -4.3713807261371940E-004
   9.0799999999999992E-002    -3.5440453059097925E-004
   9.1649999999999981E-002    -2.7105928523873582E-004
   9.2499999999999999E-002    -1.8764011774552263E-004
   9.3349999999999989E-002    -1.0467669366623151E-004
   9.4200000000000006E-002    -2.2690229197135180E-005
   9.5049999999999996E-002     5.7818694975907438E-005
   9.5899999999999985E-002     1.3636712709130387E-004
   9.6750000000000003E-002     2.1249959153571603E-004
   9.7599999999999992E-002     2.8578699793439929E-004
   9.8449999999999982E-002     3.5583355567708622E-004
   9.9299999999999999E-002     4.2227707264666536E-004
  0.10014999999999999          4.8479337590512226E-004
  0.10099999999999998          5.4309761755544079E-004
  0.10185000000000000          5.9694353053893435E-004
  0.10269999999999999          6.4612836423915180E-004
  0.10355000000000000          6.9049084189199209E-004
  0.10439999999999999          7.2991190265816834E-004
  0.10524999999999998          7.6431449015095269E-004
  0.10610000000000000          7.9366267640450510E-004
  0.10694999999999999          8.1796180462394795E-004
  0.10779999999999998          8.3725524850067920E-004
  0.10865000000000000          8.5162238883079581E-004
  0.10949999999999999          8.6117871755096481E-004
  0.11035000000000000          8.6607116070151952E-004
  0.11119999999999999          8.6647601821152639E-004
  0.11204999999999998          8.6259652415463677E-004
  0.11290000000000000          8.5465865535594519E-004
  0.11374999999999999          8.4290934154327703E-004
  0.11459999999999998          8.2761250378622219E-004
  0.11545000000000000          8.0904618008857188E-004
  0.11629999999999999          7.8749924205590439E-004
  0.11715000000000000          7.6326783821612280E-004
  0.11799999999999999          7.3665273043915748E-004
  0.11884999999999998          7.0795611891539092E-004
  0.11970000000000000          6.7747908448550999E-004
  0.12054999999999999          6.4551857564888293E-004
  0.12139999999999998          6.1236544788096086E-004
  0.12225000000000000          5.7830185757327046E-004
  0.12309999999999999          5.4359932801080436E-004
  0.12395000000000000          5.0851698421509471E-004
  0.12479999999999999          4.7330013913564670E-004
  0.12564999999999998          4.3817864788864416E-004
  0.12650000000000000          4.0336606774404941E-004
  0.12734999999999999          3.6905876228511146E-004
  0.12819999999999998          3.3543558932088249E-004
  0.12905000000000000          3.0265735542124117E-004
  0.12989999999999999          2.7086684396009927E-004
  0.13074999999999998          2.4018902393961383E-004
  0.13159999999999999          2.1073051238086100E-004
  0.13245000000000001          1.8258070700860284E-004
  0.13329999999999997          1.5581190581553657E-004
  0.13414999999999999          1.3047988500743411E-004
  0.13500000000000001          1.0662495422114108E-004
  0.13584999999999997          8.4273084873326775E-005
  0.13669999999999999          6.3436371181019779E-005
  0.13755000000000001          4.4114456300571029E-005
  0.13839999999999997          2.6295576942395231E-005
  0.13924999999999998          9.9579624750463832E-006
  0.14010000000000000         -4.9295509642507512E-006
  0.14094999999999996         -1.8406360725832769E-005
  0.14179999999999998         -3.0519242761145818E-005
  0.14265000000000000         -4.1321103230430219E-005
  0.14350000000000002         -5.0869901990751441E-005
  0.14434999999999998         -5.9227390081712998E-005
  0.14520000000000000         -6.6458431566278244E-005
  0.14605000000000001         -7.2629909812663290E-005
  0.14689999999999998         -7.7810043702191973E-005
  0.14774999999999999         -8.2067603797621316E-005
  0.14860000000000001         -8.5471458626137605E-005
  0.14944999999999997         -8.8089661232609591E-005
  0.15029999999999999         -8.9989279558706908E-005
  0.15115000000000001         -9.1235721161469195E-005
  0.15199999999999997         -9.1892576942065866E-005
  0.15284999999999999         -9.2020859525687918E-005
  0.15370000000000000         -9.1678912174561442E-005
  0.15454999999999997         -9.0921750319391327E-005
  0.15539999999999998         -8.9801416096054438E-005
  0.15625000000000000         -8.8366531717740422E-005
  0.15709999999999996         -8.6662790149663396E-005
  0.15794999999999998         -8.4732409947158117E-005
  0.15880000000000000         -8.2614365196635037E-005
  0.15965000000000001         -8.0344866423958731E-005
  0.16049999999999998         -7.7956516115857229E-005
  0.16134999999999999         -7.5478987228883994E-005
  0.16220000000000001         -7.2938589081491823E-005
  0.16304999999999997         -7.0359002452635800E-005
  0.16389999999999999         -6.7761251442473793E-005
  0.16475000000000001         -6.5163659379190964E-005
  0.16559999999999997         -6.2582626750462691E-005
  0.16644999999999999         -6.0032194086283439E-005
  0.16730000000000000         -5.7524461286547392E-005
  0.16814999999999997         -5.5069655352276052E-005
  0.16899999999999998         -5.2676004810954534E-005
  0.16985000000000000         -5.0350071300711433E-005
  0.17069999999999996         -4.8096611742938080E-005
  0.17154999999999998         -4.5919062418771261E-005
  0.17240000000000000         -4.3819808304854949E-005
  0.17325000000000002         -4.1800517707037368E-005
  0.17409999999999998         -3.9862248539578843E-005
  0.17494999999999999         -3.8005730591077693E-005
  0.17580000000000001         -3.6231230123218108E-005
  0.17664999999999997         -3.4538451545150284E-005
  0.17749999999999999         -3.2926263574473007E-005
  0.17835000000000001         -3.1392759667390185E-005
  0.17919999999999997         -2.9935376134633115E-005
  0.18004999999999999         -2.8551031543454780E-005
  0.18090000000000001         -2.7236405261273783E-005
  0.18174999999999997         -2.5988180808004666E-005
  0.18259999999999998         -2.4803422839096595E-005
  0.18345000000000000         -2.3679530374746269E-005
  0.18429999999999996         -2.2614259339855191E-005
  0.18514999999999998         -2.1605544258618334E-005
  0.18600000000000000         -2.0651094558101870E-005
  0.18684999999999996         -1.9748419864810242E-005
  0.18769999999999998         -1.8894671637762749E-005
  0.18855000000000000         -1.8086750644448763E-005
  0.18940000000000001         -1.7321481510085506E-005
  0.19024999999999997         -1.6595862208600827E-005
  0.19109999999999999         -1.5907415562936925E-005
  0.19195000000000001         -1.5254030668916412E-005
  0.19279999999999997         -1.4634098119806399E-005
  0.19364999999999999         -1.4046201243855402E-005
  0.19450000000000001         -1.3489106816211010E-005
  0.19534999999999997         -1.2961446802696214E-005
  0.19619999999999999         -1.2461626758556960E-005
  0.19705000000000000         -1.1988014995935559E-005
  0.19789999999999996         -1.1538860473763691E-005
  0.19874999999999998         -1.1112516901576368E-005
  0.19960000000000000         -1.0707477827751127E-005
  0.20044999999999996         -1.0322573075615834E-005
  0.20129999999999998         -9.9567403380969382E-006
  0.20215000000000000         -9.6090514420375726E-006
  0.20300000000000001         -9.2785197137727414E-006
  0.20384999999999998         -8.9641461871430531E-006
  0.20469999999999999         -8.6648526591048112E-006
  0.20555000000000001         -8.3795829471706300E-006
  0.20639999999999997         -8.1074487758294986E-006
  0.20724999999999999         -7.8476846537052451E-006
  0.20810000000000001         -7.5997287622199264E-006
  0.20894999999999997         -7.3631083833245317E-006
  0.20979999999999999         -7.1373455080532612E-006
  0.21065000000000000         -6.9218187342704592E-006
  0.21149999999999997         -6.7157004755691986E-006
  0.21234999999999998         -6.5179552987619658E-006
  0.21320000000000000         -6.3274731924471912E-006
  0.21404999999999996         -6.1432555055858596E-006
  0.21489999999999998         -5.9645186961843850E-006
  0.21575000000000000         -5.7907675694735804E-006
  0.21659999999999996         -5.6218650878297632E-006
  0.21744999999999998         -5.4578592093683717E-006
  0.21829999999999999         -5.2988141085447302E-006
  0.21915000000000001         -5.1446787327735456E-006
  0.21999999999999997         -4.9951527766431799E-006
  0.22084999999999999         -4.8497356699697223E-006
  0.22170000000000001         -4.7077624775564441E-006
  0.22254999999999997         -4.5686019247610307E-006
  0.22339999999999999         -4.4318136882702401E-006
  0.22425000000000000         -4.2972534785948038E-006
  0.22509999999999997         -4.1650520432675709E-006
  0.22594999999999998         -4.0356040842580638E-006
  0.22680000000000000         -3.9093471451419198E-006
  0.22764999999999996         -3.7867064128966615E-006
  0.22849999999999998         -3.6678802907413545E-006
  0.22935000000000000         -3.5529030444892411E-006
  0.23019999999999996         -3.4416515991916542E-006
  0.23104999999999998         -3.3339469743987347E-006
  0.23190000000000000         -3.2296423097408781E-006
  0.23275000000000001         -3.1287338930363896E-006
  0.23359999999999997         -3.0313258336728331E-006
  0.23444999999999999         -2.9376837181451440E-006
  0.23530000000000001         -2.8480766578875324E-006
  0.23614999999999997         -2.7627729106154747E-006
  0.23699999999999999         -2.6820308096201113E-006
  0.23785000000000001         -2.6059966728927146E-006
  0.23869999999999997         -2.5348013814817670E-006
  0.23954999999999999         -2.4685333179866077E-006
  0.24040000000000000         -2.4072138023151432E-006
  0.24124999999999996         -2.3507812117781469E-006
  0.24209999999999998         -2.2990830291415997E-006
  0.24295000000000000         -2.2518407192308163E-006
  0.24379999999999996         -2.2087062752638805E-006
  0.24464999999999998         -2.1693011434068597E-006
  0.24550000000000000         -2.1333031725514871E-006
  0.24634999999999996         -2.1005552545556625E-006
  0.24719999999999998         -2.0710449827212651E-006
  0.24804999999999999         -2.0449044605289168E-006
  0.24890000000000001         -2.0222803877910519E-006
  0.24974999999999997         -2.0031928647950379E-006
  0.25059999999999999         -1.9874089490356613E-006
  0.25145000000000001         -1.9743813269023496E-006
  0.25229999999999997         -1.9632699458443437E-006
  0.25314999999999999         -1.9531198140053626E-006
  0.25400000000000000         -1.9430363248117573E-006
  0.25484999999999997         -1.9323878399184136E-006
  0.25569999999999998         -1.9209556311186553E-006
  0.25655000000000000         -1.9088802671624302E-006
  0.25739999999999996         -1.8965631366228522E-006
  0.25824999999999998         -1.8844378115977054E-006
  0.25910000000000000         -1.8726858093469851E-006
  0.25994999999999996         -1.8611088546503379E-006
  0.26079999999999998         -1.8490500665656653E-006
  0.26164999999999999         -1.8355307689270994E-006
  0.26249999999999996         -1.8194601385247155E-006
  0.26334999999999997         -1.7999084501258639E-006
  0.26419999999999999         -1.7763482911094263E-006
  0.26505000000000001         -1.7487644855991207E-006
  0.26589999999999997         -1.7175857681530852E-006
  0.26674999999999999         -1.6835373858866254E-006
  0.26760000000000000         -1.6473501839770177E-006
  0.26844999999999997         -1.6095547689397268E-006
  0.26929999999999998         -1.5702898567832076E-006
  0.27015000000000000         -1.5293292366141663E-006
  0.27099999999999996         -1.4861515564406503E-006
  0.27184999999999998         -1.4401823100121320E-006
  0.27270000000000000         -1.3909931775599142E-006
  0.27354999999999996         -1.3384913505339862E-006
  0.27439999999999998         -1.2829727540418285E-006
  0.27524999999999999         -1.2250963034003471E-006
  0.27609999999999996         -1.1657358824254391E-006
  0.27694999999999997         -1.1058167367557937E-006
  0.27779999999999999         -1.0461612203615522E-006
  0.27865000000000001         -9.8735766697580273E-007
  0.27949999999999997         -9.2970892277700718E-007
  0.28034999999999999         -8.7328614126694369E-007
  0.28120000000000001         -8.1802190421230477E-007
  0.28204999999999997         -7.6380605495105403E-007
  0.28289999999999998         -7.1061102153845173E-007
  0.28375000000000000         -6.5860400325336147E-007
  0.28459999999999996         -6.0815850230121294E-007
  0.28544999999999998         -5.5987347576217608E-007
  0.28630000000000000         -5.1453331178726973E-007
  0.28714999999999996         -4.7300374442972109E-007
  0.28799999999999998         -4.3611142424075015E-007
  0.28885000000000000         -4.0451094852157670E-007
  0.28969999999999996         -3.7858494587712055E-007
  0.29054999999999997         -3.5838876572731600E-007
  0.29139999999999999         -3.4367591865310653E-007
  0.29224999999999995         -3.3399295157514522E-007
  0.29309999999999997         -3.2883306915245998E-007
  0.29394999999999999         -3.2780956622441527E-007
  0.29480000000000001         -3.3078233115314757E-007
  0.29564999999999997         -3.3789349132541457E-007
  0.29649999999999999         -3.4949657104808214E-007
  0.29735000000000000         -3.6600915700154270E-007
  0.29819999999999997         -3.8769590639791462E-007
  0.29904999999999998         -4.1448612589715662E-007
  0.29990000000000000         -4.4588603581327688E-007
  0.30074999999999996         -4.8101391688244317E-007
  0.30159999999999998         -5.1875515314940249E-007
  0.30245000000000000         -5.5800257759660016E-007
  0.30329999999999996         -5.9788538183742721E-007
  0.30414999999999998         -6.3793790877913070E-007
  0.30499999999999999         -6.7811193768626155E-007
  0.30584999999999996         -7.1868378722160145E-007
  0.30669999999999997         -7.6002548483052453E-007
  0.30754999999999999         -8.0236502016249045E-007
  0.30840000000000001         -8.4560893558640844E-007
  0.30924999999999997         -8.8927764340765325E-007
  0.31009999999999999         -9.3259304090548270E-007
  0.31095000000000000         -9.7465979169885947E-007
  0.31179999999999997         -1.0147257843826502E-006
  0.31264999999999998         -1.0523633140384180E-006
  0.31350000000000000         -1.0875871448716195E-006
  0.31434999999999996         -1.1208325657179580E-006
  0.31519999999999998         -1.1528466029449064E-006
  0.31605000000000000         -1.1845020844588557E-006
  0.31689999999999996         -1.2166684645189922E-006
  0.31774999999999998         -1.2501186318685741E-006
  0.31859999999999999         -1.2855421870076901E-006
  0.31944999999999996         -1.3236376853283090E-006
  0.32029999999999997         -1.3652288874556156E-006
  0.32114999999999999         -1.4113449948336370E-006
  0.32199999999999995         -1.4632727562452540E-006
  0.32284999999999997         -1.5225355758022531E-006
  0.32369999999999999         -1.5908337252904852E-006
  0.32455000000000001         -1.6700044576994206E-006
  0.32539999999999997         -1.7619951241476672E-006
  0.32624999999999998         -1.8689068500996256E-006
  0.32710000000000000         -1.9930771816318592E-006
  0.32794999999999996         -2.1371657670937238E-006
  0.32879999999999998         -2.3042025727616159E-006
  0.32965000000000000         -2.4975819193300195E-006
  0.33049999999999996         -2.7209562432807983E-006
  0.33134999999999998         -2.9781353004980199E-006
  0.33220000000000000         -3.2729324011771169E-006
  0.33304999999999996         -3.6091521413465623E-006
  0.33389999999999997         -3.9905852726374536E-006
  0.33474999999999999         -4.4211547035782726E-006
  0.33559999999999995         -4.9050636453684526E-006
  0.33644999999999997         -5.4469348374507583E-006
  0.33729999999999999         -6.0518761030886664E-006
  0.33815000000000001         -6.7254384952423332E-006
  0.33899999999999997         -7.4734507081452687E-006
  0.33984999999999999         -8.3017950725992434E-006
  0.34070000000000000         -9.2161697309913378E-006
  0.34154999999999996         -1.0221942171806838E-005
  0.34239999999999998         -1.1324113966789013E-005