 -0.12000000000000000          0.0000000000000000
 -0.11914999999999999          0.0000000000000000
 -0.11830000000000000          0.0000000000000000
 -0.11745000000000000          0.0000000000000000
 -0.11660000000000000          0.0000000000000000
 -0.11574999999999999          0.0000000000000000
 -0.11490000000000000          0.0000000000000000
 -0.11405000000000000          0.0000000000000000
 -0.11320000000000000          1.3335015621778812E-023
 -0.11234999999999999          1.6094407449050243E-022
 -0.11150000000000000          9.3548072533273107E-022
 -0.11065000000000000          3.2863460341272987E-021
 -0.10979999999999999          6.5516347681342514E-021
 -0.10894999999999999         -2.7460005550533418E-022
 -0.10810000000000000         -5.7664391533818828E-020
 -0.10725000000000000         -2.5431010395502158E-019
 -0.10639999999999999         -6.9543778435217690E-019
 -0.10554999999999999         -1.3150862447741491E-018
 -0.10470000000000000         -1.4163879028112665E-018
 -0.10385000000000000          1.0098546737164861E-018
 -0.10299999999999999          9.6476981481505425E-018
 -0.10214999999999999          2.8560866779534278E-017
 -0.10130000000000000          5.7258659857388505E-017
 -0.10045000000000000          8.0772398402510115E-017
  -9.9599999999999994E-002     5.6834921318088402E-017
  -9.8750000000000004E-002    -9.0573179536212322E-017
  -9.7900000000000001E-002    -4.5278441753579242E-016
  -9.7049999999999997E-002    -1.0694157414646594E-015
  -9.6199999999999994E-002    -1.7990218142257479E-015
  -9.5349999999999990E-002    -2.1509777264984765E-015
  -9.4500000000000001E-002    -1.1705539631659277E-015
  -9.3649999999999997E-002     2.4489853325987153E-015
  -9.2799999999999994E-002     9.8082772273868689E-015
  -9.1950000000000004E-002     2.0649939346214066E-014
  -9.1100000000000000E-002     3.1733281975020653E-014
  -9.0249999999999997E-002     3.5344099198395316E-014
  -8.9399999999999993E-002     1.9147840754018393E-014
  -8.8549999999999990E-002    -3.0990707882862424E-014
  -8.7700000000000000E-002    -1.2383085731517975E-013
  -8.6849999999999997E-002    -2.5119219941837532E-013
  -8.5999999999999993E-002    -3.7467635659853267E-013
  -8.5150000000000003E-002    -4.1697036489394556E-013
  -8.4300000000000000E-002    -2.6723288678545445E-013
  -8.3449999999999996E-002     1.8935427404670490E-013
  -8.2600000000000007E-002     1.0123871251120713E-012
  -8.1749999999999989E-002     2.1233377223238122E-012
  -8.0900000000000000E-002     3.2224625305177659E-012
  -8.0049999999999996E-002     3.7481577624236061E-012
  -7.9199999999999993E-002     2.9335246260938309E-012
  -7.8350000000000003E-002     8.6500890178036908E-015
  -7.7499999999999999E-002    -5.4372903967605733E-012
  -7.6649999999999996E-002    -1.2985681858726148E-011
  -7.5800000000000006E-002    -2.0948143724164318E-011
  -7.4949999999999989E-002    -2.6176258949593959E-011
  -7.4099999999999999E-002    -2.4377280243196526E-011
  -7.3249999999999996E-002    -1.1137989462889596E-011
  -7.2399999999999992E-002     1.6316644741687131E-011
  -7.1550000000000002E-002     5.6896303161775264E-011
  -7.0699999999999999E-002     1.0357111863063895E-010
  -6.9849999999999995E-002     1.4237781171668452E-010
  -6.9000000000000006E-002     1.5353518602463312E-010
  -6.8149999999999988E-002     1.1545105560034874E-010
  -6.7299999999999999E-002     1.1713317779874366E-011
  -6.6449999999999995E-002    -1.5992261173486086E-010
  -6.5599999999999992E-002    -3.7879993551588240E-010
  -6.4750000000000002E-002    -5.9618144889708137E-010
  -6.3899999999999998E-002    -7.3727937440542378E-010
  -6.3049999999999995E-002    -7.1335920133674668E-010
  -6.2199999999999998E-002    -4.4459601470876555E-010
  -6.1350000000000002E-002     1.0902351858462501E-010
  -6.0499999999999998E-002     9.1542002313199305E-010
  -5.9650000000000002E-002     1.8468033575044879E-009
  -5.8799999999999998E-002     2.6761974891119535E-009
  -5.7950000000000002E-002     3.1038127978528512E-009
  -5.7099999999999998E-002     2.8173476739403507E-009
  -5.6249999999999994E-002     1.5811796253088930E-009
  -5.5400000000000005E-002    -6.6150985764549048E-010
  -5.4550000000000001E-002    -3.6996367620453446E-009
  -5.3699999999999998E-002    -7.0096060278567362E-009
  -5.2849999999999994E-002    -9.7845670564315242E-009
  -5.2000000000000005E-002    -1.1055313466191502E-008
  -5.1150000000000001E-002    -9.8998472301925360E-009
  -5.0299999999999997E-002    -5.7123100264133887E-009
  -4.9449999999999994E-002     1.5242938986295083E-009
  -4.8600000000000004E-002     1.1035364638489959E-008
  -4.7750000000000001E-002     2.1198564734958005E-008
  -4.6899999999999997E-002     2.9693351859611310E-008
  -4.6049999999999994E-002     3.3876534249076182E-008
  -4.5200000000000004E-002     3.1349909041894845E-008
  -4.4350000000000001E-002     2.0626309002956150E-008
  -4.3499999999999997E-002     1.7512499967614300E-009
  -4.2649999999999993E-002    -2.3287335338507717E-008
  -4.1800000000000004E-002    -5.0515219102894359E-008
  -4.0950000000000000E-002    -7.4392480946622968E-008
  -4.0099999999999997E-002    -8.8704739978732084E-008
  -3.9249999999999993E-002    -8.7817922364334342E-008
  -3.8400000000000004E-002    -6.8080019924593174E-008
  -3.7550000000000000E-002    -2.9074574024782411E-008
  -3.6699999999999997E-002     2.5590431020755895E-008
  -3.5850000000000007E-002     8.8225199363696801E-008
  -3.5000000000000003E-002     1.4787811346797798E-007
  -3.4150000000000000E-002     1.9200432399601801E-007
  -3.3299999999999996E-002     2.0875977738028323E-007
  -3.2450000000000007E-002     1.8952517564213372E-007
  -3.1600000000000003E-002     1.3115857104506363E-007
  -3.0750000000000000E-002     3.7467528841910029E-008
  -2.9899999999999996E-002    -8.0504659149901365E-008
  -2.9050000000000006E-002    -2.0557841842855544E-007
  -2.8200000000000003E-002    -3.1685459160713587E-007
  -2.7349999999999999E-002    -3.9309871805330458E-007
  -2.6499999999999996E-002    -4.1651698293102255E-007
  -2.5650000000000006E-002    -3.7622238938437715E-007
  -2.4800000000000003E-002    -2.7071285583208467E-007
  -2.3949999999999999E-002    -1.0884094092724878E-007
  -2.3099999999999996E-002     9.0960101337846196E-008
  -2.2250000000000006E-002     3.0309582486239347E-007
  -2.1400000000000002E-002     4.9845026377779634E-007
  -2.0549999999999999E-002     6.4858892958299562E-007
  -1.9699999999999995E-002     7.2977546711522394E-007
  -1.8850000000000006E-002     7.2612859403690691E-007
  -1.8000000000000002E-002     6.3146897802894060E-007
  -1.7149999999999999E-002     4.4971413239313052E-007
  -1.6299999999999995E-002     1.9401368296512791E-007
  -1.5450000000000005E-002    -1.1495070257717000E-007
  -1.4600000000000002E-002    -4.5095975865067412E-007
  -1.3749999999999998E-002    -7.8408658554628985E-007
  -1.2899999999999995E-002    -1.0821276794587068E-006
  -1.2050000000000005E-002    -1.3117185521855820E-006
  -1.1200000000000002E-002    -1.4395191079623202E-006
  -1.0349999999999998E-002    -1.4340361489771338E-006
  -9.5000000000000084E-003    -1.2686148717405739E-006
  -8.6500000000000049E-003    -9.2586458460922618E-007
  -7.8000000000000014E-003    -4.0328088465316915E-007
  -6.9499999999999978E-003     2.8074736979592436E-007
  -6.1000000000000082E-003     1.0819227005320906E-006
  -5.2500000000000047E-003     1.9276999964233307E-006
  -4.4000000000000011E-003     2.7192685206943045E-006
  -3.5499999999999976E-003     3.3390029396137498E-006
  -2.7000000000000079E-003     3.6636343053108202E-006
  -1.8500000000000044E-003     3.5821737265632311E-006
  -1.0000000000000009E-003     3.0164183891223541E-006
  -1.4999999999999736E-004     1.9407900044024489E-006
   6.9999999999999230E-004     3.9777667038765172E-007
   1.5499999999999958E-003    -1.4946692830495166E-006
   2.3999999999999994E-003    -3.5465137722853068E-006
   3.2500000000000029E-003    -5.5110214621502581E-006
   4.0999999999999925E-003    -7.1114225964806840E-006
   4.9499999999999961E-003    -8.0761128416246215E-006
   5.7999999999999996E-003    -8.1778999365324414E-006
   6.6499999999999893E-003    -7.2717402931856507E-006
   7.5000000000000067E-003    -5.3251159826873662E-006
   8.3499999999999963E-003    -2.4359725945337091E-006
   9.1999999999999860E-003     1.1653663549850430E-006
   1.0050000000000003E-002     5.1317430487791295E-006
   1.0899999999999993E-002     9.0311859412637633E-006
   1.1750000000000010E-002     1.2392145325056975E-005
   1.2600000000000000E-002     1.4756894898678546E-005
   1.3449999999999990E-002     1.5736906886335633E-005
   1.4300000000000007E-002     1.5063658723815255E-005
   1.5149999999999997E-002     1.2628932575587881E-005
   1.5999999999999986E-002     8.5097055516624462E-006
   1.6850000000000004E-002     2.9745109385133711E-006
   1.7699999999999994E-002    -3.5300894256144449E-006
   1.8549999999999983E-002    -1.0412256674782001E-005
   1.9400000000000001E-002    -1.6984391730199211E-005
   2.0249999999999990E-002    -2.2525540163584345E-005
   2.1100000000000008E-002    -2.6351427735456635E-005
   2.1949999999999997E-002    -2.7886299933191443E-005
   2.2799999999999987E-002    -2.6730023518466356E-005
   2.3650000000000004E-002    -2.2714099411916317E-005
   2.4499999999999994E-002    -1.5940572808214787E-005
   2.5349999999999984E-002    -6.7986510140507002E-006
   2.6200000000000001E-002     4.0447866730020295E-006
   2.7049999999999991E-002     1.5682739217051960E-005
   2.7900000000000008E-002     2.7033310572947585E-005
   2.8749999999999998E-002     3.6929534524173186E-005
   2.9599999999999987E-002     4.4227849084728656E-005
   3.0450000000000005E-002     4.7926392660869939E-005
   3.1299999999999994E-002     4.7282043541573557E-005
   3.2149999999999984E-002     4.1913619561336950E-005
   3.3000000000000002E-002     3.1878352688504468E-005
   3.3849999999999991E-002     1.7710290804752035E-005
   3.4700000000000009E-002     4.1193716282050403E-007
   3.5549999999999998E-002    -1.8604791486659213E-005
   3.6399999999999988E-002    -3.7626829793723021E-005
   3.7250000000000005E-002    -5.4789985667515896E-005
   3.8099999999999995E-002    -6.8257549437997466E-005
   3.8949999999999985E-002    -7.6409945496580179E-005
   3.9800000000000002E-002    -7.8025303407867785E-005
   4.0649999999999992E-002    -7.2430932096289525E-005
   4.1500000000000009E-002    -5.9607477723328791E-005
   4.2349999999999999E-002    -4.0232817698679523E-005
   4.3199999999999988E-002    -1.5658020573444995E-005
   4.4050000000000006E-002     1.2184449055885030E-005
   4.4899999999999995E-002     4.0933864788447378E-005
   4.5749999999999985E-002     6.8002738995508440E-005
   4.6600000000000003E-002     9.0809069637944477E-005
   4.7449999999999992E-002     1.0701825441055217E-004
   4.8299999999999982E-002     1.1477287065734584E-004
   4.9149999999999999E-002     1.1288833691913675E-004
   4.9999999999999989E-002     1.0099499045250346E-004
   5.0850000000000006E-002     7.9611080081263121E-005
   5.1699999999999996E-002     5.0136306859118447E-005
   5.2549999999999986E-002     1.4762542573994792E-005
   5.3400000000000003E-002    -2.3694165478688471E-005
   5.4249999999999993E-002    -6.2027796328530875E-005
   5.5099999999999982E-002    -9.6922727518438808E-005
   5.5950000000000000E-002    -1.2525428128161686E-004
   5.6799999999999989E-002    -1.4437946031797415E-004
   5.7650000000000007E-002    -1.5238788704504931E-004
   5.8499999999999996E-002    -1.4828680663353796E-004
   5.9349999999999986E-002    -1.3210021343397941E-004
   6.0200000000000004E-002    -1.0487276351702884E-004
   6.1049999999999993E-002    -6.8579616739271939E-005
   6.1899999999999983E-002    -2.5953497768039041E-005
   6.2750000000000000E-002     1.9750519241037684E-005
   6.3599999999999990E-002     6.5027536341006993E-005
   6.4450000000000007E-002     1.0640612271542030E-004
   6.5299999999999997E-002     1.4071686307254408E-004
   6.6149999999999987E-002     1.6532674797508891E-004
   6.7000000000000004E-002     1.7832389758913267E-004
   6.7849999999999994E-002     1.7864463328795446E-004
   6.8699999999999983E-002     1.6613886964538007E-004
   6.9550000000000001E-002     1.4157353181494308E-004
   7.0399999999999990E-002     1.0657652527815431E-004
   7.1249999999999980E-002     6.3525009699788891E-005
   7.2099999999999997E-002     1.5383931183971275E-005
   7.2949999999999987E-002    -3.4497375522414263E-005
   7.3800000000000004E-002    -8.2619250428544631E-005
   7.4649999999999994E-002    -1.2558208790807468E-004
   7.5499999999999984E-002    -1.6033510348461652E-004
   7.6350000000000001E-002    -1.8440401485180863E-004
   7.7199999999999991E-002    -1.9607804547157052E-004
   7.8049999999999981E-002    -1.9453869782989349E-004
   7.8899999999999998E-002    -1.7991880127065502E-004
   7.9749999999999988E-002    -1.5328553952456903E-004
   8.0600000000000005E-002    -1.1655002120061909E-004
   8.1449999999999995E-002    -7.2312636967642553E-005
   8.2299999999999984E-002    -2.3658694764625926E-005
   8.3150000000000002E-002     2.6076484085249231E-005
   8.3999999999999991E-002     7.3552588920649988E-005
   8.4849999999999981E-002     1.1566065899054967E-004
   8.5699999999999998E-002     1.4973333489607803E-004
   8.6549999999999988E-002     1.7371568493808960E-004
   8.7400000000000005E-002     1.8628667183393459E-004
   8.8249999999999995E-002     1.8692608335692029E-004
   8.9099999999999985E-002     1.7592474039918905E-004
   8.9950000000000002E-002     1.5433951662443125E-004
   9.0799999999999992E-002     1.2389852215649420E-004
   9.1649999999999981E-002     8.6863701840418151E-005
   9.2499999999999999E-002     4.5861449524685311E-005
   9.3349999999999989E-002     3.6932877513239799E-006
   9.4200000000000006E-002    -3.6860392593983198E-005
   9.5049999999999996E-002    -7.3229711044771253E-005
   9.5899999999999985E-002    -1.0322600280188602E-004
   9.6750000000000003E-002    -1.2518232432353401E-004
   9.7599999999999992E-002    -1.3805638507567887E-004
   9.8449999999999982E-002    -1.4148890071395568E-004
   9.9299999999999999E-002    -1.3581499792991427E-004
  0.10014999999999999         -1.2202788214564893E-004
  0.10099999999999998         -1.0169600888134422E-004
  0.10185000000000000         -7.6838178324217424E-005
  0.10269999999999999         -4.9762847615445668E-005
  0.10355000000000000         -2.2880237511208398E-005
  0.10439999999999999          1.5009074996153064E-006
  0.10524999999999998          2.1377558545216004E-005
  0.10610000000000000          3.5241465074028507E-005
  0.10694999999999999          4.2234158417331075E-005
  0.10779999999999998          4.2250565003183451E-005
  0.10865000000000000          3.5975207507070805E-005
  0.10949999999999999          2.4839050996119908E-005
  0.11035000000000000          1.0893324484960671E-005
  0.11119999999999999         -3.3970031604021410E-006
  0.11204999999999998         -1.5423410072676036E-005
  0.11290000000000000         -2.2743795779074573E-005
  0.11374999999999999         -2.3399148636407663E-005
  0.11459999999999998         -1.6195540876856178E-005
  0.11545000000000000         -9.1427273881126515E-007
  0.11629999999999999          2.1586503061303531E-005
  0.11715000000000000          4.9397428729440846E-005
  0.11799999999999999          7.9723141873523585E-005
  0.11884999999999998          1.0916869755940662E-004
  0.11970000000000000          1.3411961065970868E-004
  0.12054999999999999          1.5116922516684843E-004
  0.12139999999999998          1.5753483807583982E-004
  0.12225000000000000          1.5140766562736475E-004
  0.12309999999999999          1.3218802546526617E-004
  0.12395000000000000          1.0057483648945284E-004
  0.12479999999999999          5.8499370043004448E-005
  0.12564999999999998          8.9075771838731529E-006
  0.12650000000000000         -4.4569945150180844E-005
  0.12734999999999999         -9.8019282459074574E-005
  0.12819999999999998         -1.4765895566017941E-004
  0.12905000000000000         -1.9023632090070329E-004
  0.12989999999999999         -2.2332970249072412E-004
  0.13074999999999998         -2.4557095028022113E-004
  0.13159999999999999         -2.5672906553855286E-004
  0.13245000000000001         -2.5769733429961559E-004
  0.13329999999999997         -2.5038504909102752E-004
  0.13414999999999999         -2.3751261798596074E-004
  0.13500000000000001         -2.2237142427754749E-004
  0.13584999999999997         -2.0854521529012828E-004
  0.13669999999999999         -1.9965590330420783E-004
  0.13755000000000001         -1.9908845136665042E-004
  0.13839999999999997         -2.0981876796018512E-004
  0.13924999999999998         -2.3425790835407734E-004
  0.14010000000000000         -2.7422471273913317E-004
  0.14094999999999996         -3.3095265519938446E-004
  0.14179999999999998         -4.0523542540307707E-004
  0.14265000000000000         -4.9764703710672225E-004
  0.14350000000000002         -6.0876178984428718E-004
  0.14434999999999998         -7.3954114632626786E-004
  0.14520000000000000         -8.9155127799578977E-004
  0.14605000000000001         -1.0673706384535860E-003
  0.14689999999999998         -1.2707008096693368E-003
  0.14774999999999999         -1.5065484591154504E-003
  0.14860000000000001         -1.7811933440891675E-003
  0.14944999999999997         -2.1021273811489103E-003
  0.15029999999999999         -2.4777233961868492E-003
  0.15115000000000001         -2.9173012862569493E-003
  0.15199999999999997         -3.4306756598111339E-003
  0.15284999999999999         -4.0281107535384223E-003
  0.15370000000000000         -4.7202270566357816E-003
  0.15454999999999997         -5.5180627189997554E-003
  0.15539999999999998         -6.4335059628714587E-003
  0.15625000000000000         -7.4790678726458573E-003
  0.15709999999999996         -8.6684993025166242E-003
  0.15794999999999998         -1.0017456185434016E-002
  0.15880000000000000         -1.1543607232727918E-002
  0.15965000000000001         -1.3267070004618953E-002
  0.16049999999999998         -1.5210403356927815E-002
  0.16134999999999999         -1.7399377790014381E-002
  0.16220000000000001         -1.9862275738381265E-002
  0.16304999999999997         -2.2629516971266438E-002
  0.16389999999999999         -2.5733657276186175E-002
  0.16475000000000001         -2.9208912772637690E-002
  0.16559999999999997         -3.3090286695203044E-002
  0.16644999999999999         -3.7413265774966793E-002
  0.16730000000000000         -4.2213060983069997E-002
  0.16814999999999997         -4.7524174404047118E-002
  0.16899999999999998         -5.3380774168156751E-002
  0.16985000000000000         -5.9815455571544864E-002
  0.17069999999999996         -6.6859444389157752E-002
  0.17154999999999998         -7.4541889577049325E-002
  0.17240000000000000         -8.2892516252451295E-002
  0.17325000000000002         -9.1937221083859613E-002
  0.17409999999999998        -0.10170182950153991
  0.17494999999999999        -0.11221075338590464
  0.17580000000000001        -0.12348805064954757
  0.17664999999999997        -0.13555337518866387
  0.17749999999999999        -0.14842442369996833
  0.17835000000000001        -0.16211608707585320
  0.17919999999999997        -0.17663585194979636
  0.18004999999999999        -0.19198899385650806
  0.18090000000000001        -0.20816667378208187
  0.18174999999999997        -0.22515220628599980
  0.18259999999999998        -0.24291404021733018
  0.18345000000000000        -0.26140297450172412
  0.18429999999999996        -0.28055202274629026
  0.18514999999999998        -0.30027546491506274
  0.18600000000000000        -0.32046107704268684
  0.18684999999999996        -0.34097353658826385
  0.18769999999999998        -0.36165480815838991
  0.18855000000000000        -0.38231700341330588
  0.18940000000000001        -0.40275016482521231
  0.19024999999999997        -0.42271931357007064
  0.19109999999999999        -0.44196717186577639
  0.19195000000000001        -0.46019952770619427
  0.19279999999999997        -0.47710633677097086
  0.19364999999999999        -0.49234076657337034
  0.19450000000000001        -0.50554137872538873
  0.19534999999999997        -0.51631220566462444
  0.19619999999999999        -0.52421821218814257
  0.19705000000000000        -0.52880744591579898
  0.19789999999999996        -0.52960854013799608
  0.19874999999999998        -0.52611849882199890
  0.19960000000000000        -0.51782168378624061
  0.20044999999999996        -0.50416973482537719
  0.20129999999999998        -0.48463836179039066
  0.20215000000000000        -0.45868227910905862
  0.20300000000000001        -0.42577461175657266
  0.20384999999999998        -0.38538340683927164
  0.20469999999999999        -0.33703281300041371
  0.20555000000000001        -0.28027046012226609
  0.20639999999999997        -0.21468781704555409
  0.20724999999999999        -0.13998531851611834
  0.20810000000000001         -5.5884869908967391E-002
  0.20894999999999997          3.7786327686501489E-002
  0.20979999999999999         0.14107559006887713
  0.21065000000000000         0.25394901499258143
  0.21149999999999997         0.37622156603009138
  0.21234999999999998         0.50758855494904387
  0.21320000000000000         0.64763860395933492
  0.21404999999999996         0.79574583948434507
  0.21489999999999998         0.95119835276997999
  0.21575000000000000          1.1130951305030024
  0.21659999999999996          1.2804003795358743
  0.21744999999999998          1.4518702429800945
  0.21829999999999999          1.6261690824194877
  0.21915000000000001          1.8017601753433081
  0.21999999999999997          1.9769542614699529
  0.22084999999999999          2.1499755052608749
  0.22170000000000001          2.3188848296262345
  0.22254999999999997          2.4816332344036853
  0.22339999999999999          2.6361094128466021
  0.22425000000000000          2.7801336065395454
  0.22509999999999997          2.9114886529138801
  0.22594999999999998          3.0279338126000814
  0.22680000000000000          3.1272379492440967
  0.22764999999999996          3.2072006819392254
  0.22849999999999998          3.2656910684165870
  0.22935000000000000          3.3007156330937448
  0.23019999999999996          3.3103932660167450
  0.23104999999999998          3.2930593153053564
  0.23190000000000000          3.2472271190215625
  0.23275000000000001          3.1716860621305560
  0.23359999999999997          3.0654788876370462
  0.23444999999999999          2.9279892824256843
  0.23530000000000001          2.7588495975296015
  0.23614999999999997          2.5581035856881216
  0.23699999999999999          2.3261550687985229
  0.23785000000000001          2.0637394403993321
  0.23869999999999997          1.7719768952768675
  0.23954999999999999          1.4523939414395723
  0.24040000000000000          1.1068261522238250
  0.24124999999999996         0.73754839141486561
  0.24209999999999998         0.34710396571024049
  0.24295000000000000         -6.1549470780151661E-002
  0.24379999999999996        -0.48515791555314369
  0.24464999999999998        -0.92025741938494554
  0.24550000000000000         -1.3630279277712414
  0.24634999999999996         -1.8095090723724332
  0.24719999999999998         -2.2555896839684095
  0.24804999999999999         -2.6969771903288224
  0.24890000000000001         -3.1293473295728820
  0.24974999999999997         -3.5484163610827890
  0.25059999999999999         -3.9498553054608365
  0.25145000000000001         -4.3295085433657201
  0.25229999999999997         -4.6833106953044279
  0.25314999999999999         -5.0074316201782993
  0.25400000000000000         -5.2982736795107046
  0.25484999999999997         -5.5525280885775787
  0.25569999999999998         -5.7672156578464921
  0.25655000000000000         -5.9397486924791556
  0.25739999999999996         -6.0679938750079447
  0.25824999999999998         -6.1501871336535192
  0.25910000000000000         -6.1851206633749651
  0.25994999999999996         -6.1720306925576205
  0.26079999999999998         -6.1106723235939562
  0.26164999999999999         -6.0012954250114996
  0.26249999999999996         -5.8446398842657716
  0.26334999999999997         -5.6419581557183687
  0.26419999999999999         -5.3950201929070136
  0.26505000000000001         -5.1060031774572829
  0.26589999999999997         -4.7776164475697875
  0.26674999999999999         -4.4128420517966713
  0.26760000000000000         -4.0151583825995170
  0.26844999999999997         -3.5883056778409785
  0.26929999999999998         -3.1362696174589160
  0.27015000000000000         -2.6633255921742380
  0.27099999999999996         -2.1739342202784093
  0.27184999999999998         -1.6726062822076821
  0.27270000000000000         -1.1640281978618512
  0.27354999999999996        -0.65281612139337697
  0.27439999999999998        -0.14358247925015344
  0.27524999999999999         0.35916769184448571
  0.27609999999999996         0.85106960738496584
  0.27694999999999997          1.3279021555584174
  0.27779999999999999          1.7857440149754147
  0.27865000000000001          2.2208994542957470
  0.27949999999999997          2.6300044063528931
  0.28034999999999999          3.0100714097874999
  0.28120000000000001          3.3583308940349950
  0.28204999999999997          3.6725601848839520
  0.28289999999999998          3.9509014572189813
  0.28375000000000000          4.1918175095300629
  0.28459999999999996          4.3943962521158157
  0.28544999999999998          4.5579106926991528
  0.28630000000000000          4.6822229895309446
  0.28714999999999996          4.7674574937058622
  0.28799999999999998          4.8141814001060270
  0.28885000000000000          4.8233155149669198
  0.28969999999999996          4.7961744303836182
  0.29054999999999997          4.7342871296456028
  0.29139999999999999          4.6395625296476029
  0.29224999999999995          4.5141440509593656
  0.29309999999999997          4.3603576996426412
  0.29394999999999999          4.1807865947614005
  0.29480000000000001          3.9780839903316561
  0.29564999999999997          3.7550885410106276
  0.29649999999999999          3.5146574629811442
  0.29735000000000000          3.2596855703913219
  0.29819999999999997          2.9931011543934809
  0.29904999999999998          2.7177777666619503
  0.29990000000000000          2.4365167629537319
  0.30074999999999996          2.1520830038259455
  0.30159999999999998          1.8670702341392944
  0.30245000000000000          1.5839578743347513
  0.30329999999999996          1.3050738058901277
  0.30414999999999998          1.0325832606232954
  0.30499999999999999         0.76846707415977500
  0.30584999999999996         0.51451261760710587
  0.30669999999999997         0.27229018325923282
  0.30754999999999999          4.3175046768956005E-002
  0.30840000000000001        -0.17165526058009772
  0.30924999999999997        -0.37126380175043472
  0.31009999999999999        -0.55489670546593350
  0.31095000000000000        -0.72203313451031947
  0.31179999999999997        -0.87234624942672434
  0.31264999999999998         -1.0056900929367574
  0.31350000000000000         -1.1221027141679953
  0.31434999999999996         -1.2217795314846733
  0.31519999999999998         -1.3050823546784505
  0.31605000000000000         -1.3724821261846978
  0.31689999999999996         -1.4245765739510985
  0.31774999999999998         -1.4620880513335652
  0.31859999999999999         -1.4858019808402581
  0.31944999999999996         -1.4966074975470447
  0.32029999999999997         -1.4954504228632115
  0.32114999999999999         -1.4833213495000241
  0.32199999999999995         -1.4612340635566836
  0.32284999999999997         -1.4302110791513862
  0.32369999999999999         -1.3912882067436965
  0.32455000000000001         -1.3454463094840174
  0.32539999999999997         -1.2936896210150217
  0.32624999999999998         -1.2369481660737505
  0.32710000000000000         -1.1761579599950933
  0.32794999999999996         -1.1121875704437922
  0.32879999999999998         -1.0459000147747675
  0.32965000000000000        -0.97809685367841581
  0.33049999999999996        -0.90951425268675024
  0.33134999999999998        -0.84086128932903115
  0.33220000000000000        -0.77275328100601892
  0.33304999999999996        -0.70574281124438099
  0.33389999999999997        -0.64032046743654214
  0.33474999999999999        -0.57689549605914248
  0.33559999999999995        -0.51581524908153398
  0.33644999999999997        -0.45737010545429868
  0.33729999999999999        -0.40178874276330950
  0.33815000000000001        -0.34926839154370171
  0.33899999999999997        -0.29994556419185209
  0.33984999999999999        -0.25391722401009609
  0.34070000000000000        -0.21123955676394310
  0.34154999999999996        -0.17191794686742207
  0.34239999999999998        -0.13591764591714023
  0.34325000000000000        -0.10317984152045699
  0.34409999999999996         -7.3609313314609043E-002
  0.34494999999999998         -4.7087785259890436E-002
  0.34580000000000000         -2.3491703394236153E-002
  0.34664999999999996         -2.6749804018484681E-003
  0.34749999999999998          1.5517854223838629E-002
  0.34834999999999999          3.1240800173477405E-002
  0.34919999999999995          4.4651680976743248E-002
  0.35004999999999997          5.5925738291007915E-002
  0.35089999999999999          6.5234824314104281E-002
  0.35174999999999995          7.2753140968677715E-002
  0.35259999999999997          7.8643883778168833E-002
  0.35344999999999999          8.3077492446393897E-002
  0.35430000000000000          8.6218263369447296E-002
  0.35514999999999997          8.8206789623499496E-002
  0.35599999999999998          8.9192303775694190E-002
  0.35685000000000000          8.9304207589249715E-002
  0.35769999999999996          8.8670820629775660E-002
  0.35854999999999998          8.7410254134250173E-002