 -0.12000000000000000          0.0000000000000000
 -0.11914999999999999          0.0000000000000000
 -0.11830000000000000          0.0000000000000000
 -0.11745000000000000          0.0000000000000000
 -0.11660000000000000          0.0000000000000000
 -0.11574999999999999          0.0000000000000000
 -0.11490000000000000          0.0000000000000000
 -0.11405000000000000          0.0000000000000000
 -0.11320000000000000          0.0000000000000000
 -0.11234999999999999         -1.0215687457089963E-029
 -0.11150000000000000         -1.5651022547250365E-028
 -0.11065000000000000         -1.2101337683564341E-027
 -0.10979999999999999         -6.2193585271371982E-027
 -0.10894999999999999         -2.3477619824300039E-026
 -0.10810000000000000         -6.7352537107622414E-026
 -0.10725000000000000         -1.4332374131557885E-025
 -0.10639999999999999         -1.8822482407513133E-025
 -0.10554999999999999          6.7667641404956210E-026
 -0.10470000000000000          1.3034484078055924E-024
 -0.10385000000000000          4.7112864639724251E-024
 -0.10299999999999999          1.1568090126960795E-023
 -0.10214999999999999          2.1578073125394469E-023
 -0.10130000000000000          2.9382271638985254E-023
 -0.10045000000000000          1.9631010704576355E-023
  -9.9599999999999994E-002    -3.6637301638690510E-023
  -9.8750000000000004E-002    -1.7817056246472424E-022
  -9.7900000000000001E-002    -4.3341810528032514E-022
  -9.7049999999999997E-002    -7.7694229089116173E-022
  -9.6199999999999994E-002    -1.0651517616139664E-021
  -9.5349999999999990E-002    -9.7497739476390976E-022
  -9.4500000000000001E-002     3.2350097283648813E-024
  -9.3649999999999997E-002     2.4461934012219958E-021
  -9.2799999999999994E-002     6.6866272737800140E-021
  -9.1950000000000004E-002     1.2305640146424669E-020
  -9.1100000000000000E-002     1.7544783692489791E-020
  -9.0249999999999997E-002     1.8914882398346087E-020
  -8.9399999999999993E-002     1.1413003017933578E-020
  -8.8549999999999990E-002    -1.0233617932291535E-020
  -8.7700000000000000E-002    -4.9097325170463105E-020
  -8.6849999999999997E-002    -1.0264143514251949E-019
  -8.5999999999999993E-002    -1.5933750442826311E-019
  -8.5150000000000003E-002    -1.9691081878231232E-019
  -8.4300000000000000E-002    -1.8407909516434409E-019
  -8.3449999999999996E-002    -8.7207528196323348E-020
  -8.2600000000000007E-002     1.1799832460568157E-019
  -8.1749999999999989E-002     4.3161950209109403E-019
  -8.0900000000000000E-002     8.1542678964115060E-019
  -8.0049999999999996E-002     1.1849161996090296E-018
  -7.9199999999999993E-002     1.4127454226597656E-018
  -7.8350000000000003E-002     1.3468937745823765E-018
  -7.7499999999999999E-002     8.4333875548574675E-019
  -7.6649999999999996E-002    -1.9109105326223987E-019
  -7.5800000000000006E-002    -1.7534921144424578E-018
  -7.4949999999999989E-002    -3.7068537287159432E-018
  -7.4099999999999999E-002    -5.7585612764394501E-018
  -7.3249999999999996E-002    -7.4632800858530403E-018
  -7.2399999999999992E-002    -8.2563719653348988E-018
  -7.1550000000000002E-002    -7.5227283511894206E-018
  -7.0699999999999999E-002    -4.7043106646169599E-018
  -6.9849999999999995E-002     5.5473297569297019E-019
  -6.9000000000000006E-002     8.2365648740815908E-018
  -6.8149999999999988E-002     1.7779837473555328E-017
  -6.7299999999999999E-002     2.7959983446778415E-017
  -6.6449999999999995E-002     3.6883043451748814E-017
  -6.5599999999999992E-002     4.2153528727884892E-017
  -6.4750000000000002E-002     4.1245000103511375E-017
  -6.3899999999999998E-002     3.2039996995976750E-017
  -6.3049999999999995E-002     1.3427641430316334E-017
  -6.2199999999999998E-002    -1.4216426535510528E-017
  -6.1350000000000002E-002    -4.8853454436203689E-017
  -6.0499999999999998E-002    -8.7021595160475956E-017
  -5.9650000000000002E-002    -1.2445025839892143E-016
  -5.8799999999999998E-002    -1.5681261870970025E-016
  -5.7950000000000002E-002    -1.8023212587973614E-016
  -5.7099999999999998E-002    -1.9115864786147202E-016
  -5.6249999999999994E-002    -1.8544608378716336E-016
  -5.5400000000000005E-002    -1.5688671912696189E-016
  -5.4550000000000001E-002    -9.5965035647755719E-017
  -5.3699999999999998E-002     1.0034444698752140E-017
  -5.2849999999999994E-002     1.7444477947942754E-016
  -5.2000000000000005E-002     4.0561489590854092E-016
  -5.1150000000000001E-002     6.9886069696807598E-016
  -5.0299999999999997E-002     1.0279244762930707E-015
  -4.9449999999999994E-002     1.3390507626590304E-015
  -4.8600000000000004E-002     1.5511318983065382E-015
  -4.7750000000000001E-002     1.5644959099859524E-015
  -4.6899999999999997E-002     1.2787807609942264E-015
  -4.6049999999999994E-002     6.1744299717789910E-016
  -4.5200000000000004E-002    -4.4625872640736129E-016
  -4.4350000000000001E-002    -1.8684139926167380E-015
  -4.3499999999999997E-002    -3.5247179503511884E-015
  -4.2649999999999993E-002    -5.2150417577346819E-015
  -4.1800000000000004E-002    -6.6814536355150716E-015
  -4.0950000000000000E-002    -7.6350633621702653E-015
  -4.0099999999999997E-002    -7.7854002574310419E-015
  -3.9249999999999993E-002    -6.8675569575588428E-015
  -3.8400000000000004E-002    -4.6667923047760383E-015
  -3.7550000000000000E-002    -1.0457365771931920E-015
  -3.6699999999999997E-002     4.0173373836029474E-015
  -3.5850000000000007E-002     1.0372585576826912E-014
  -3.5000000000000003E-002     1.7627040324966175E-014
  -3.4150000000000000E-002     2.5073302497656622E-014
  -3.3299999999999996E-002     3.1648823410138226E-014
  -3.2450000000000007E-002     3.5964205806400312E-014
  -3.1600000000000003E-002     3.6434189661768344E-014
  -3.0750000000000000E-002     3.1524092908174586E-014
  -2.9899999999999996E-002     2.0089987202316492E-014
  -2.9050000000000006E-002     1.7522098359598680E-015
  -2.8200000000000003E-002    -2.2787613982883016E-014
  -2.7349999999999999E-002    -5.1582376762222039E-014
  -2.6499999999999996E-002    -8.1500071735022625E-014
  -2.5650000000000006E-002    -1.0852846113527396E-013
  -2.4800000000000003E-002    -1.2827676289050817E-013
  -2.3949999999999999E-002    -1.3656930592560663E-013
  -2.3099999999999996E-002    -1.3000096130741523E-013
  -2.2250000000000006E-002    -1.0634513914400465E-013
  -2.1400000000000002E-002    -6.4769752669276451E-014
  -2.0549999999999999E-002    -5.9024118396652075E-015
  -1.9699999999999995E-002     6.8143898218128010E-014
  -1.8850000000000006E-002     1.5365669002352719E-013
  -1.8000000000000002E-002     2.4505141512282832E-013
  -1.7149999999999999E-002     3.3449643478043018E-013
  -1.6299999999999995E-002     4.1164261294313429E-013
  -1.5450000000000005E-002     4.6377734871024312E-013
  -1.4600000000000002E-002     4.7672816328717987E-013
  -1.3749999999999998E-002     4.3669946180671677E-013
  -1.2899999999999995E-002     3.3294874036305990E-013
  -1.2050000000000005E-002     1.6086603115477283E-013
  -1.1200000000000002E-002    -7.5270008851029218E-014
  -1.0349999999999998E-002    -3.6069963326813138E-013
  -9.5000000000000084E-003    -6.7044087627561158E-013
  -8.6500000000000049E-003    -9.7166776588258544E-013
  -7.8000000000000014E-003    -1.2278858990521782E-012
  -6.9499999999999978E-003    -1.4040075268662919E-012
  -6.1000000000000082E-003    -1.4710785742974383E-012
  -5.2500000000000047E-003    -1.4094606036881111E-012
  -4.4000000000000011E-003    -1.2097550536670858E-012
  -3.5499999999999976E-003    -8.7157187602086483E-013
  -2.7000000000000079E-003    -4.0111323019453051E-013
  -1.8500000000000044E-003     1.9085883360826334E-013
  -1.0000000000000009E-003     8.8907834990514862E-013
  -1.4999999999999736E-004     1.6709138472562496E-012
   6.9999999999999230E-004     2.5008723251508726E-012
   1.5499999999999958E-003     3.3241645091086443E-012
   2.3999999999999994E-003     4.0621201455389521E-012
   3.2500000000000029E-003     4.6125325330450114E-012
   4.0999999999999925E-003     4.8572134092800840E-012
   4.9499999999999961E-003     4.6772209819482068E-012
   5.7999999999999996E-003     3.9738791556452657E-012
   6.6499999999999893E-003     2.6915069156717889E-012
   7.5000000000000067E-003     8.3655533968646046E-013
   8.3499999999999963E-003    -1.5118705052823540E-012
   9.1999999999999860E-003    -4.2032433348419836E-012
   1.0050000000000003E-002    -7.0287386266274361E-012
   1.0899999999999993E-002    -9.7431423432992358E-012
   1.1750000000000010E-002    -1.2090089938723681E-011
   1.2600000000000000E-002    -1.3824588056276226E-011
   1.3449999999999990E-002    -1.4728296635298048E-011
   1.4300000000000007E-002    -1.4616324599167664E-011
   1.5149999999999997E-002    -1.3338180302390987E-011
   1.5999999999999986E-002    -1.0778675917705073E-011
   1.6850000000000004E-002    -6.8655698218971022E-012
   1.7699999999999994E-002    -1.5889708917802852E-012
   1.8549999999999983E-002     4.9668689836112988E-012
   1.9400000000000001E-002     1.2584479533760363E-011
   2.0249999999999990E-002     2.0877207256124179E-011
   2.1100000000000008E-002     2.9269584795064109E-011
   2.1949999999999997E-002     3.7006363872299823E-011
   2.2799999999999987E-002     4.3197645202452230E-011
   2.3650000000000004E-002     4.6899713732541712E-011
   2.4499999999999994E-002     4.7222620346419279E-011
   2.5349999999999984E-002     4.3448496946568657E-011
   2.6200000000000001E-002     3.5141473599048372E-011
   2.7049999999999991E-002     2.2231671889222757E-011
   2.7900000000000008E-002     5.0615654027696418E-012
   2.8749999999999998E-002    -1.5608776596276175E-011
   2.9599999999999987E-002    -3.8633172245250194E-011
   3.0450000000000005E-002    -6.2537868738785154E-011
   3.1299999999999994E-002    -8.5596806783293406E-011
   3.2149999999999984E-002    -1.0591641414285859E-010
   3.3000000000000002E-002    -1.2152870120254640E-010
   3.3849999999999991E-002    -1.3049708519241946E-010
   3.4700000000000009E-002    -1.3104208106911009E-010
   3.5549999999999998E-002    -1.2169161636894861E-010
   3.6399999999999988E-002    -1.0145375903653305E-010
   3.7250000000000005E-002    -6.9999151598570017E-011
   3.8099999999999995E-002    -2.7829906808553429E-011
   3.8949999999999985E-002     2.3595204149135441E-011
   3.9800000000000002E-002     8.1810046399310442E-011
   4.0649999999999992E-002     1.4338874704695601E-010
   4.1500000000000009E-002     2.0410196225450683E-010
   4.2349999999999999E-002     2.5917586659758191E-010
   4.3199999999999988E-002     3.0363149362068921E-010
   4.4050000000000006E-002     3.3267076802771958E-010
   4.4899999999999995E-002     3.4207109818945366E-010
   4.5749999999999985E-002     3.2855347719626771E-010
   4.6600000000000003E-002     2.9009632400616584E-010
   4.7449999999999992E-002     2.2617939854312262E-010
   4.8299999999999982E-002     1.3794918615840548E-010
   4.9149999999999999E-002     2.8304225016226283E-011
   4.9999999999999989E-002    -9.8103098413762613E-011
   5.0850000000000006E-002    -2.3495321178760196E-010
   5.1699999999999996E-002    -3.7444552068724014E-010
   5.2549999999999986E-002    -5.0759624023704534E-010
   5.3400000000000003E-002    -6.2465682338508558E-010
   5.4249999999999993E-002    -7.1565317434142721E-010
   5.5099999999999982E-002    -7.7102884085040006E-010
   5.5950000000000000E-002    -7.8236026449453176E-010
   5.6799999999999989E-002    -7.4309236089332749E-010
   5.7650000000000007E-002    -6.4923262246292234E-010
   5.8499999999999996E-002    -4.9993757382771311E-010
   5.9349999999999986E-002    -2.9792883023749072E-010
   6.0200000000000004E-002    -4.9689430836811740E-011
   6.1049999999999993E-002     2.3459053158725366E-010
   6.1899999999999983E-002     5.4133005756580711E-010
   6.2750000000000000E-002     8.5412507629554217E-010
   6.3599999999999990E-002     1.1545410840048968E-009
   6.4450000000000007E-002     1.4230890330673356E-009
   6.5299999999999997E-002     1.6403340156102406E-009
   6.6149999999999987E-002     1.7880782059886021E-009
   6.7000000000000004E-002     1.8505584580327801E-009
   6.7849999999999994E-002     1.8155935716382878E-009
   6.8699999999999983E-002     1.6756179488714595E-009
   6.9550000000000001E-002     1.4285384665225376E-009
   7.0399999999999990E-002     1.0783576876879527E-009
   7.1249999999999980E-002     6.3551329602012370E-010
   7.2099999999999997E-002     1.1689905044809019E-010
   7.2949999999999987E-002    -4.5444835114708430E-010
   7.3800000000000004E-002    -1.0499943679140946E-009
   7.4649999999999994E-002    -1.6366472052004074E-009
   7.5499999999999984E-002    -2.1779335582503417E-009
   7.6350000000000001E-002    -2.6353317517604405E-009
   7.7199999999999991E-002    -2.9696506466107137E-009
   7.8049999999999981E-002    -3.1423408146754190E-009
   7.8899999999999998E-002    -3.1166200089449065E-009
   7.9749999999999988E-002    -2.8583026111784455E-009
   8.0600000000000005E-002    -2.3362376749927633E-009
   8.1449999999999995E-002    -1.5222884790679300E-009
   8.2299999999999984E-002    -3.9081580382377872E-010
   8.3150000000000002E-002     1.0823592196493654E-009
   8.3999999999999991E-002     2.9214747105025419E-009
   8.4849999999999981E-002     5.1528114310891500E-009
   8.5699999999999998E-002     7.8070536876655168E-009
   8.6549999999999988E-002     1.0922000571550873E-008
   8.7400000000000005E-002     1.4545531058099637E-008
   8.8249999999999995E-002     1.8738769696930317E-008
   8.9099999999999985E-002     2.3579399012863529E-008
   8.9950000000000002E-002     2.9165068041261190E-008
   9.0799999999999992E-002     3.5616835170730447E-008
   9.1649999999999981E-002     4.3082707146785574E-008
   9.2499999999999999E-002     5.1741296807063621E-008
   9.3349999999999989E-002     6.1805603053460915E-008
   9.4200000000000006E-002     7.3527078793380913E-008
   9.5049999999999996E-002     8.7200155128868922E-008
   9.5899999999999985E-002     1.0316731081099139E-007
   9.6750000000000003E-002     1.2182473314071592E-007
   9.7599999999999992E-002     1.4362887277951254E-007
   9.8449999999999982E-002     1.6910401168925773E-007
   9.9299999999999999E-002     1.9885069063588253E-007
  0.10014999999999999          2.3355531146918883E-007
  0.10099999999999998          2.7400075258311148E-007
  0.10185000000000000          3.2107851138008598E-007
  0.10269999999999999          3.7580122210843213E-007
  0.10355000000000000          4.3931744489345002E-007
  0.10439999999999999          5.1292716230793528E-007
  0.10524999999999998          5.9809868644000401E-007
  0.10610000000000000          6.9648696940861333E-007
  0.10694999999999999          8.0995362493963365E-007
  0.10779999999999998          9.4058824888466363E-007
  0.10865000000000000          1.0907302234272155E-006
  0.10949999999999999          1.2629936104232456E-006
  0.11035000000000000          1.4602920701867437E-006
  0.11119999999999999          1.6858650829931986E-006
  0.11204999999999998          1.9433060503437846E-006
  0.11290000000000000          2.2365903567184475E-006
  0.11374999999999999          2.5701046120306244E-006
  0.11459999999999998          2.9486749941632207E-006
  0.11545000000000000          3.3775992602105850E-006
  0.11629999999999999          3.8626744099738407E-006
  0.11715000000000000          4.4102249105849327E-006
  0.11799999999999999          5.0271348570645450E-006
  0.11884999999999998          5.7208711139935191E-006
  0.11970000000000000          6.4995093711024355E-006
  0.12054999999999999          7.3717535628240785E-006
  0.12139999999999998          8.3469625770489737E-006
  0.12225000000000000          9.4351503807266229E-006
  0.12309999999999999          1.0647010125179109E-005
  0.12395000000000000          1.1993911455981258E-005
  0.12479999999999999          1.3487894254386693E-005
  0.12564999999999998          1.5141664300008856E-005
  0.12650000000000000          1.6968565374114185E-005
  0.12734999999999999          1.8982549694785606E-005
  0.12819999999999998          2.1198129184576189E-005
  0.12905000000000000          2.3630327245776961E-005
  0.12989999999999999          2.6294598112094380E-005
  0.13074999999999998          2.9206740370345802E-005
  0.13159999999999999          3.2382775940886565E-005
  0.13245000000000001          3.5838846180189209E-005
  0.13329999999999997          3.9591059148068314E-005
  0.13414999999999999          4.3655315367582629E-005
  0.13500000000000001          4.8047128486787124E-005
  0.13584999999999997          5.2781412804055582E-005
  0.13669999999999999          5.7872256693950232E-005
  0.13755000000000001          6.3332654101741693E-005
  0.13839999999999997          6.9174224658745802E-005
  0.13924999999999998          7.5406971108271003E-005
  0.14010000000000000          8.2038894783480657E-005
  0.14094999999999996          8.9075705153570081E-005
  0.14179999999999998          9.6520466956022871E-005
  0.14265000000000000          1.0437320622677718E-004
  0.14350000000000002          1.1263060562642889E-004
  0.14434999999999998          1.2128553848429763E-004
  0.14520000000000000          1.3032680911195707E-004
  0.14605000000000001          1.3973863638828483E-004
  0.14689999999999998          1.4950039932797190E-004
  0.14774999999999999          1.5958613162047708E-004
  0.14860000000000001          1.6996428184996303E-004
  0.14944999999999997          1.8059731356383389E-004
  0.15029999999999999          1.9144146184589035E-004
  0.15115000000000001          2.0244640483051206E-004
  0.15199999999999997          2.1355503839381711E-004
  0.15284999999999999          2.2470342796842018E-004
  0.15370000000000000          2.3582063925780723E-004
  0.15454999999999997          2.4682867092938853E-004
  0.15539999999999998          2.5764256623870765E-004
  0.15625000000000000          2.6817060987638374E-004
  0.15709999999999996          2.7831436854022296E-004
  0.15794999999999998          2.8796917526849346E-004
  0.15880000000000000          2.9702450567246246E-004
  0.15965000000000001          3.0536434193630032E-004
  0.16049999999999998          3.1286788841573869E-004
  0.16134999999999999          3.1941061961253408E-004
  0.16220000000000001          3.2486473830151618E-004
  0.16304999999999997          3.2910038473664812E-004
  0.16389999999999999          3.3198671264738256E-004
  0.16475000000000001          3.3339285256791769E-004
  0.16559999999999997          3.3318968449632557E-004
  0.16644999999999999          3.3125083833215337E-004
  0.16730000000000000          3.2745413955902045E-004
  0.16814999999999997          3.2168299798590762E-004
  0.16899999999999998          3.1382842335949432E-004
  0.16985000000000000          3.0379006048372395E-004
  0.17069999999999996          2.9147804346380684E-004
  0.17154999999999998          2.7681474760990417E-004
  0.17240000000000000          2.5973642629841128E-004
  0.17325000000000002          2.4019439653983422E-004
  0.17409999999999998          2.1815690097120054E-004
  0.17494999999999999          1.9361045394130700E-004
  0.17580000000000001          1.6656080409534939E-004
  0.17664999999999997          1.3703474645441178E-004
  0.17749999999999999          1.0508025112009739E-004
  0.17835000000000001          7.0767937321697548E-005
  0.17919999999999997          3.4191402389750405E-005
  0.18004999999999999         -4.5322891358590810E-006
  0.18090000000000001         -4.5262437293652774E-005
  0.18174999999999997         -8.7834978955478069E-005
  0.18259999999999998         -1.3206265847693659E-004
  0.18345000000000000         -1.7773567996968103E-004
  0.18429999999999996         -2.2462242484885646E-004
  0.18514999999999998         -2.7247109553446314E-004
  0.18600000000000000         -3.2101098247478148E-004
  0.18684999999999996         -3.6995410707158822E-004
  0.18769999999999998         -4.1899725295014472E-004
  0.18855000000000000         -4.6782422498752913E-004
  0.18940000000000001         -5.1610834867055839E-004
  0.19024999999999997         -5.6351551999493622E-004
  0.19109999999999999         -6.0970619311723911E-004
  0.19195000000000001         -6.5433945242657254E-004
  0.19279999999999997         -6.9707539278894678E-004
  0.19364999999999999         -7.3757892542466856E-004
  0.19450000000000001         -7.7552271100159186E-004
  0.19534999999999997         -8.1059055405307168E-004
  0.19619999999999999         -8.4248090492573466E-004
  0.19705000000000000         -8.7090975968064934E-004
  0.19789999999999996         -8.9561401141053168E-004
  0.19874999999999998         -9.1635419004949922E-004
  0.19960000000000000         -9.3291766348614278E-004
  0.20044999999999996         -9.4512071288483269E-004
  0.20129999999999998         -9.5281106366117846E-004
  0.20215000000000000         -9.5586973904424467E-004
  0.20300000000000001         -9.5421305677413604E-004
  0.20384999999999998         -9.4779354642752296E-004
  0.20469999999999999         -9.3660107440092890E-004
  0.20555000000000001         -9.2066339868133193E-004
  0.20639999999999997         -9.0004648613982972E-004
  0.20724999999999999         -8.7485412054694102E-004
  0.20810000000000001         -8.4522718357885735E-004
  0.20894999999999997         -8.1134279271724997E-004
  0.20979999999999999         -7.7341303390851600E-004
  0.21065000000000000         -7.3168271201059024E-004
  0.21149999999999997         -6.8642727315004640E-004
  0.21234999999999998         -6.3795030999583193E-004
  0.21320000000000000         -5.8658098703647703E-004
  0.21404999999999996         -5.3267142146613995E-004
  0.21489999999999998         -4.7659221985271803E-004
  0.21575000000000000         -4.1873015109980977E-004
  0.21659999999999996         -3.5948359340301500E-004
  0.21744999999999998         -2.9925982026110249E-004
  0.21829999999999999         -2.3847005594687597E-004
  0.21915000000000001         -1.7752648669443555E-004
  0.21999999999999997         -1.1683786861839065E-004
  0.22084999999999999         -5.6805824367112431E-005
  0.22170000000000001          2.1779997239487151E-006
  0.22254999999999997          5.9736260366779744E-005
  0.22339999999999999          1.1550903911534530E-004
  0.22425000000000000          1.6915641333443965E-004
  0.22509999999999997          2.2036170602858214E-004
  0.22594999999999998          2.6883368977405060E-004
  0.22680000000000000          3.1430886155175438E-004
  0.22764999999999996          3.5655363239230417E-004
  0.22849999999999998          3.9536508515605539E-004
  0.22935000000000000          4.3057357331630162E-004
  0.23019999999999996          4.6204243455653655E-004
  0.23104999999999998          4.8966878144909062E-004
  0.23190000000000000          5.1338404766244862E-004
  0.23275000000000001          5.3315325964740055E-004
  0.23359999999999997          5.4897518810981499E-004
  0.23444999999999999          5.6088067020679169E-004
  0.23530000000000001          5.6893177287354018E-004
  0.23614999999999997          5.7322118762316880E-004
  0.23699999999999999          5.7386923698600457E-004
  0.23785000000000001          5.7102324294420722E-004
  0.23869999999999997          5.6485497085830168E-004
  0.23954999999999999          5.5555858666085926E-004
  0.24040000000000000          5.4334854760810429E-004
  0.24124999999999996          5.2845630557141437E-004
  0.24209999999999998          5.1112883154183887E-004
  0.24295000000000000          4.9162521066615464E-004
  0.24379999999999996          4.7021447982343375E-004
  0.24464999999999998          4.4717248734560373E-004
  0.24550000000000000          4.2277960036366072E-004
  0.24634999999999996          3.9731809057391259E-004
  0.24719999999999998          3.7106982530114559E-004
  0.24804999999999999          3.4431372860303051E-004
  0.24890000000000001          3.1732363280594252E-004
  0.24974999999999997          2.9036607274272278E-004
  0.25059999999999999          2.6369819938055805E-004
  0.25145000000000001          2.3756599270953179E-004
  0.25229999999999997          2.1220227541994194E-004
  0.25314999999999999          1.8782526881876025E-004
  0.25400000000000000          1.6463712093958867E-004
  0.25484999999999997          1.4282271794935177E-004
  0.25569999999999998          1.2254823809704197E-004
  0.25655000000000000          1.0396087787862110E-004
  0.25739999999999996          8.7187779125748189E-005
  0.25824999999999998          7.2335457890876804E-005
  0.25910000000000000          5.9489760657201085E-005
  0.25994999999999996          4.8715396566928151E-005
  0.26079999999999998          4.0056010792612054E-005
  0.26164999999999999          3.3534054236664077E-005
  0.26249999999999996          2.9151244781830404E-005
  0.26334999999999997          2.6888636216406243E-005
  0.26419999999999999          2.6707452435339709E-005
  0.26505000000000001          2.8549662383376089E-005
  0.26589999999999997          3.2339015270883187E-005
  0.26674999999999999          3.7981949292797677E-005
  0.26760000000000000          4.5368766657151768E-005
  0.26844999999999997          5.4374940255274266E-005
  0.26929999999999998          6.4862116908719539E-005
  0.27015000000000000          7.6679770031640464E-005
  0.27099999999999996          8.9666336600057362E-005
  0.27184999999999998          1.0365099609920186E-004
  0.27270000000000000          1.1845509014658261E-004
  0.27354999999999996          1.3389383179250223E-004
  0.27439999999999998          1.4977795997957822E-004
  0.27524999999999999          1.6591562794916048E-004
  0.27609999999999996          1.8211389565033918E-004
  0.27694999999999997          1.9818098500658815E-004
  0.27779999999999999          2.1392749417448032E-004
  0.27865000000000001          2.2916827675714961E-004
  0.27949999999999997          2.4372407300907043E-004
  0.28034999999999999          2.5742309020537009E-004
  0.28120000000000001          2.7010248131636831E-004
  0.28204999999999997          2.8160977154120386E-004
  0.28289999999999998          2.9180424265607487E-004
  0.28375000000000000          3.0055801410572080E-004
  0.28459999999999996          3.0775736995658476E-004
  0.28544999999999998          3.1330358750047976E-004
  0.28630000000000000          3.1711381017744390E-004
  0.28714999999999996          3.1912170701992119E-004
  0.28799999999999998          3.1927801850786976E-004
  0.28885000000000000          3.1755063153426937E-004
  0.28969999999999996          3.1392506468947264E-004
  0.29054999999999997          3.0840412799787561E-004
  0.29139999999999999          3.0100791098702713E-004
  0.29224999999999995          2.9177351405500993E-004
  0.29309999999999997          2.8075426422204889E-004
  0.29394999999999999          2.6801936787621851E-004
  0.29480000000000001          2.5365299842619116E-004
  0.29564999999999997          2.3775323087369489E-004
  0.29649999999999999          2.2043094820341141E-004
  0.29735000000000000          2.0180867139118694E-004
  0.29819999999999997          1.8201917659973522E-004
  0.29904999999999998          1.6120411207362376E-004
  0.29990000000000000          1.3951237968992742E-004
  0.30074999999999996          1.1709907159584865E-004
  0.30159999999999998          9.4123101005268243E-005
  0.30245000000000000          7.0746365276073349E-005
  0.30329999999999996          4.7131755382306524E-005
  0.30414999999999998          2.3441991233719696E-005
  0.30499999999999999         -1.6235948419729040E-007
  0.30584999999999996         -2.3524335765527876E-005
  0.30669999999999997         -4.6491389900701751E-005
  0.30754999999999999         -6.8917795618611457E-005
  0.30840000000000001         -9.0664962721301046E-005
  0.30924999999999997         -1.1160262265417215E-004
  0.31009999999999999         -1.3161049961521608E-004
  0.31095000000000000         -1.5057827073607259E-004
  0.31179999999999997         -1.6840717382064253E-004
  0.31264999999999998         -1.8500981987708322E-004
  0.31350000000000000         -2.0031125925421806E-004
  0.31434999999999996         -2.1424915248544873E-004
  0.31519999999999998         -2.2677376199273198E-004
  0.31605000000000000         -2.3784812117429312E-004
  0.31689999999999996         -2.4744773268595155E-004
  0.31774999999999998         -2.5556058006547791E-004
  0.31859999999999999         -2.6218663719279763E-004
  0.31944999999999996         -2.6733742303888217E-004
  0.32029999999999997         -2.7103558743572711E-004
  0.32114999999999999         -2.7331425683334938E-004
  0.32199999999999995         -2.7421612666097232E-004
  0.32284999999999997         -2.7379275279474789E-004
  0.32369999999999999         -2.7210374457139135E-004
  0.32455000000000001         -2.6921560694643317E-004
  0.32539999999999997         -2.6520087176250674E-004
  0.32624999999999998         -2.6013741916563712E-004
  0.32710000000000000         -2.5410712799933970E-004
  0.32794999999999996         -2.4719520680417922E-004
  0.32879999999999998         -2.3948928275208632E-004
  0.32965000000000000         -2.3107839975927615E-004
  0.33049999999999996         -2.2205221120855106E-004
  0.33134999999999998         -2.1250009880749755E-004
  0.33220000000000000         -2.0251033304959060E-004
  0.33304999999999996         -1.9216925914686332E-004
  0.33389999999999997         -1.8156073504623887E-004
  0.33474999999999999         -1.7076541000022932E-004
  0.33559999999999995         -1.5986023580491827E-004
  0.33644999999999997         -1.4891816218256851E-004
  0.33729999999999999         -1.3800766030124239E-004
  0.33815000000000001         -1.2719258418110403E-004
  0.33899999999999997         -1.1653177532589055E-004
  0.33984999999999999         -1.0607904066269397E-004
  0.34070000000000000         -9.5882815493623789E-005
  0.34154999999999996         -8.5986190803951740E-005
  0.34239999999999998         -7.6426841240423462E-005
  0.34325000000000000         -6.7237029486939210E-005