 -0.12000000000000000          0.0000000000000000
 -0.11914999999999999          0.0000000000000000
 -0.11830000000000000          0.0000000000000000
 -0.11745000000000000          0.0000000000000000
 -0.11660000000000000          0.0000000000000000
 -0.11574999999999999          0.0000000000000000
 -0.11490000000000000          0.0000000000000000
 -0.11405000000000000          0.0000000000000000
 -0.11320000000000000          0.0000000000000000
 -0.11234999999999999          9.6345489157806191E-030
 -0.11150000000000000          1.3555117914072426E-028
 -0.11065000000000000          9.3735284246444126E-028
 -0.10979999999999999          4.1135389855978884E-027
 -0.10894999999999999          1.2023282357118594E-026
 -0.10810000000000000          1.9734619030815895E-026
 -0.10725000000000000         -1.4216560034159189E-026
 -0.10639999999999999         -2.3190676274581489E-025
 -0.10554999999999999         -9.5205084916243538E-025
 -0.10470000000000000         -2.6223451619516312E-024
 -0.10385000000000000         -5.3159798332073640E-024
 -0.10299999999999999         -7.2799909745856704E-024
 -0.10214999999999999         -2.2735453699442586E-024
 -0.10130000000000000          2.3368130215959460E-023
 -0.10045000000000000          9.0379197260504122E-023
  -9.9599999999999994E-002     2.1574825281396093E-022
  -9.8750000000000004E-002     3.8218074487466371E-022
  -9.7900000000000001E-002     4.8317388683242469E-022
  -9.7049999999999997E-002     2.5703039462952362E-022
  -9.6199999999999994E-002    -7.4176607629312374E-022
  -9.5349999999999990E-002    -3.0403560443040457E-021
  -9.4500000000000001E-002    -6.8930268571876112E-021
  -9.3649999999999997E-002    -1.1591422220869655E-020
  -9.2799999999999994E-002    -1.4520429534881727E-020
  -9.1950000000000004E-002    -1.0362952141943050E-020
  -9.1100000000000000E-002     8.7141046842891801E-021
  -9.0249999999999997E-002     5.0718453201286090E-020
  -8.9399999999999993E-002     1.1825893506059549E-019
  -8.8549999999999990E-002     1.9963368654368214E-019
  -8.7700000000000000E-002     2.5861769718804940E-019
  -8.6849999999999997E-002     2.2813389926908864E-019
  -8.5999999999999993E-002     1.6163717582576218E-020
  -8.5150000000000003E-002    -4.6651014931505973E-019
  -8.4300000000000000E-002    -1.2504450491898966E-018
  -8.3449999999999996E-002    -2.2274554208344178E-018
  -8.2600000000000007E-002    -3.0676578396018666E-018
  -8.1749999999999989E-002    -3.1764101695007146E-018
  -8.0900000000000000E-002    -1.7510509556822311E-018
  -8.0049999999999996E-002     2.0025372606960455E-018
  -7.9199999999999993E-002     8.4641692400792082E-018
  -7.8350000000000003E-002     1.7045273751393555E-017
  -7.7499999999999999E-002     2.5632628818002446E-017
  -7.6649999999999996E-002     3.0291537161052645E-017
  -7.5800000000000006E-002     2.5568295988203570E-017
  -7.4949999999999989E-002     5.7100220169444038E-018
  -7.4099999999999999E-002    -3.3060602967141892E-017
  -7.3249999999999996E-002    -8.9443819705287169E-017
  -7.2399999999999992E-002    -1.5387420996054054E-016
  -7.1550000000000002E-002    -2.0651585595976465E-016
  -7.0699999999999999E-002    -2.1804991209545596E-016
  -6.9849999999999995E-002    -1.5475382448183430E-016
  -6.9000000000000006E-002     1.1410248229403447E-017
  -6.8149999999999988E-002     2.8850350167413695E-016
  -6.7299999999999999E-002     6.4901014204209814E-016
  -6.6449999999999995E-002     1.0179795601513411E-015
  -6.5599999999999992E-002     1.2714051523575414E-015
  -6.4750000000000002E-002     1.2511474287682573E-015
  -6.3899999999999998E-002     8.0014877978849241E-016
  -6.3049999999999995E-002    -1.8353410826463498E-016
  -6.2199999999999998E-002    -1.6826191781510294E-015
  -6.1350000000000002E-002    -3.5029249943170429E-015
  -6.0499999999999998E-002    -5.2444607874283883E-015
  -5.9650000000000002E-002    -6.3246061895095848E-015
  -5.8799999999999998E-002    -6.0704356045052549E-015
  -5.7950000000000002E-002    -3.8827136672616805E-015
  -5.7099999999999998E-002     5.4751498616955747E-016
  -5.6249999999999994E-002     7.0132776604643250E-015
  -5.5400000000000005E-002     1.4621441676576518E-014
  -5.4550000000000001E-002     2.1751665590053460E-014
  -5.3699999999999998E-002     2.6208901627975540E-014
  -5.2849999999999994E-002     2.5601697831603077E-014
  -5.2000000000000005E-002     1.7925143314650513E-014
  -5.1150000000000001E-002     2.2611239610829309E-015
  -5.0299999999999997E-002    -2.0555533240395121E-014
  -4.9449999999999994E-002    -4.7499335692626867E-014
  -4.8600000000000004E-002    -7.3341837995458739E-014
  -4.7750000000000001E-002    -9.1211286929960687E-014
  -4.6899999999999997E-002    -9.3764763274874925E-014
  -4.6049999999999994E-002    -7.4864806784699180E-014
  -4.5200000000000004E-002    -3.1489042880671651E-014
  -4.4350000000000001E-002     3.4537028071809632E-014
  -4.3499999999999997E-002     1.1546560957867460E-013
  -4.2649999999999993E-002     1.9765945923810530E-013
  -4.1800000000000004E-002     2.6302824499373000E-013
  -4.0950000000000000E-002     2.9189973516192210E-013
  -4.0099999999999997E-002     2.6702270164922169E-013
  -3.9249999999999993E-002     1.7805646274116140E-013
  -3.8400000000000004E-002     2.5641756127231710E-014
  -3.7550000000000000E-002    -1.7596075655747927E-013
  -3.6699999999999997E-002    -3.9856965514201579E-013
  -3.5850000000000007E-002    -6.0268947715182729E-013
  -3.5000000000000003E-002    -7.4306659041026972E-013
  -3.4150000000000000E-002    -7.7660175140874235E-013
  -3.3299999999999996E-002    -6.7141382217905244E-013
  -3.2450000000000007E-002    -4.1539691730429687E-013
  -3.1600000000000003E-002    -2.2448068900654381E-014
  -3.0750000000000000E-002     4.6526283840796421E-013
  -2.9899999999999996E-002     9.8004406483146415E-013
  -2.9050000000000006E-002     1.4366606952210051E-012
  -2.8200000000000003E-002     1.7447468455022381E-012
  -2.7349999999999999E-002     1.8239055576089654E-012
  -2.6499999999999996E-002     1.6190506052890365E-012
  -2.5650000000000006E-002     1.1132620672819659E-012
  -2.4800000000000003E-002     3.3565269798270483E-013
  -2.3949999999999999E-002    -6.3754667937795481E-013
  -2.3099999999999996E-002    -1.6893836483337007E-012
  -2.2250000000000006E-002    -2.6755019121901093E-012
  -2.1400000000000002E-002    -3.4426331699118182E-012
  -2.0549999999999999E-002    -3.8496343138873403E-012
  -1.9699999999999995E-002    -3.7880300693629265E-012
  -1.8850000000000006E-002    -3.1991629594239540E-012
  -1.8000000000000002E-002    -2.0856680236792458E-012
  -1.7149999999999999E-002    -5.1593631042870644E-013
  -1.6299999999999995E-002     1.3787135613269904E-012
  -1.5450000000000005E-002     3.4135381646793230E-012
  -1.4600000000000002E-002     5.3653114528487805E-012
  -1.3749999999999998E-002     6.9912654333443389E-012
  -1.2899999999999995E-002     8.0507176143517432E-012
  -1.2050000000000005E-002     8.3283319996904877E-012
  -1.1200000000000002E-002     7.6582298394465810E-012
  -1.0349999999999998E-002     5.9480752729954780E-012
  -9.5000000000000084E-003     3.2018299573944703E-012
  -8.6500000000000049E-003    -4.6099039947583837E-013
  -7.8000000000000014E-003    -4.7927473982345468E-012
  -6.9499999999999978E-003    -9.4158754308331608E-012
  -6.1000000000000082E-003    -1.3836162724584697E-011
  -5.2500000000000047E-003    -1.7474760974871262E-011
  -4.4000000000000011E-003    -1.9720596098406940E-011
  -3.5499999999999976E-003    -2.0001761107490829E-011
  -2.7000000000000079E-003    -1.7870493606968023E-011
  -1.8500000000000044E-003    -1.3092250781601126E-011
  -1.0000000000000009E-003    -5.7258872410731339E-012
  -1.4999999999999736E-004     3.8198368190407007E-012
   6.9999999999999230E-004     1.4767783314770539E-011
   1.5499999999999958E-003     2.6003123136048483E-011
   2.3999999999999994E-003     3.6158565216020330E-011
   3.2500000000000029E-003     4.3751647015752703E-011
   4.0999999999999925E-003     4.7363019815979427E-011
   4.9499999999999961E-003     4.5836388197110531E-011
   5.7999999999999996E-003     3.8474765077058590E-011
   6.6499999999999893E-003     2.5204610295619277E-011
   7.5000000000000067E-003     6.6806231984513378E-012
   8.3499999999999963E-003    -1.5690761620213263E-011
   9.1999999999999860E-003    -3.9822135653346897E-011
   1.0050000000000003E-002    -6.3111533474573307E-011
   1.0899999999999993E-002    -8.2693249782292334E-011
   1.1750000000000010E-002    -9.5749931916995713E-011
   1.2600000000000000E-002    -9.9853295054337357E-011
   1.3449999999999990E-002    -9.3294793760401924E-011
   1.4300000000000007E-002    -7.5366376396769959E-011
   1.5149999999999997E-002    -4.6554465473744880E-011
   1.5999999999999986E-002    -8.6181505067766241E-012
   1.6850000000000004E-002     3.5466422006065777E-011
   1.7699999999999994E-002     8.1700082544066398E-011
   1.8549999999999983E-002     1.2538325572350744E-010
   1.9400000000000001E-002     1.6154356585168602E-010
   2.0249999999999990E-002     1.8543265602988759E-010
   2.1100000000000008E-002     1.9304703711833642E-010
   2.1949999999999997E-002     1.8162250656693967E-010
   2.2799999999999987E-002     1.5005013743856551E-010
   2.3650000000000004E-002     9.9165314533450045E-011
   2.4499999999999994E-002     3.1869569229942826E-011
   2.5349999999999984E-002    -4.6943255956269695E-011
   2.6200000000000001E-002    -1.3066808684698455E-010
   2.7049999999999991E-002    -2.1147057979941420E-010
   2.7900000000000008E-002    -2.8094227095295388E-010
   2.8749999999999998E-002    -3.3088239428788695E-010
   2.9599999999999987E-002    -3.5414095950347917E-010
   3.0450000000000005E-002    -3.4544489909557748E-010
   3.1299999999999994E-002    -3.0212200563872439E-010
   3.2149999999999984E-002    -2.2463781953913148E-010
   3.3000000000000002E-002    -1.1687103269192503E-010
   3.3849999999999991E-002     1.3927828664687783E-011
   3.4700000000000009E-002     1.5752240919840917E-010
   3.5549999999999998E-002     3.0141461376195571E-010
   3.6399999999999988E-002     4.3186486797226255E-010
   3.7250000000000005E-002     5.3512970116872907E-010
   3.8099999999999995E-002     5.9880879576703521E-010
   3.8949999999999985E-002     6.1317182530973212E-010
   3.9800000000000002E-002     5.7232860729306431E-010
   4.0649999999999992E-002     4.7511215816306671E-010
   4.1500000000000009E-002     3.2556434913180700E-010
   4.2349999999999999E-002     1.3295011358380489E-010
   4.3199999999999988E-002    -8.8732294125097438E-011
   4.4050000000000006E-002    -3.2172769244624189E-010
   4.4899999999999995E-002    -5.4591980560306582E-010
   4.5749999999999985E-002    -7.4053717459064118E-010
   4.6600000000000003E-002    -8.8602257937016134E-010
   4.7449999999999992E-002    -9.6589835357763084E-010
   4.8299999999999982E-002    -9.6845352988741297E-010
   4.9149999999999999E-002    -8.8808528189106852E-010
   4.9999999999999989E-002    -7.2615522692487506E-010
   5.0850000000000006E-002    -4.9125627398671881E-010
   5.1699999999999996E-002    -1.9883831845326042E-010
   5.2549999999999986E-002     1.2980314282191108E-010
   5.3400000000000003E-002     4.6911047972896870E-010
   5.4249999999999993E-002     7.9129884513101018E-010
   5.5099999999999982E-002     1.0686721023177212E-009
   5.5950000000000000E-002     1.2760187558191735E-009
   5.6799999999999989E-002     1.3928691311265782E-009
   5.7650000000000007E-002     1.4054053388427896E-009
   5.8499999999999996E-002     1.3078413727160719E-009
   5.9349999999999986E-002     1.1031400809935834E-009
   6.0200000000000004E-002     8.0299646351675638E-010
   6.1049999999999993E-002     4.2708220946391129E-010
   6.1899999999999983E-002     1.6192275574238216E-012
   6.2750000000000000E-002    -4.4259524882589264E-010
   6.3599999999999990E-002    -8.7253994568609879E-010
   6.4450000000000007E-002    -1.2555022605195583E-009
   6.5299999999999997E-002    -1.5615861208492106E-009
   6.6149999999999987E-002    -1.7660019718863521E-009
   6.7000000000000004E-002    -1.8509694156906570E-009
   6.7849999999999994E-002    -1.8070977481031123E-009
   6.8699999999999983E-002    -1.6341553799515458E-009
   6.9550000000000001E-002    -1.3411775117930885E-009
   7.0399999999999990E-002    -9.4591291526114066E-010
   7.1249999999999980E-002    -4.7364663622230568E-010
   7.2099999999999997E-002     4.4516333486312085E-011
   7.2949999999999987E-002     5.7379430185961107E-010
   7.3800000000000004E-002     1.0781478929462897E-009
   7.4649999999999994E-002     1.5228089767633829E-009
   7.5499999999999984E-002     1.8767370586637758E-009
   7.6350000000000001E-002     2.1148230766765889E-009
   7.7199999999999991E-002     2.2196771229012242E-009
   7.8049999999999981E-002     2.1828648813141847E-009
   7.8899999999999998E-002     2.0054982122492851E-009
   7.9749999999999988E-002     1.6981405047839644E-009
   8.0600000000000005E-002     1.2800337881909735E-009
   8.1449999999999995E-002     7.7771978709298993E-010
   8.2299999999999984E-002     2.2315987072066306E-010
   8.3150000000000002E-002    -3.4849329707081704E-010
   8.3999999999999991E-002    -9.0130639176261364E-010
   8.4849999999999981E-002    -1.4009777151748704E-009
   8.5699999999999998E-002    -1.8170841555025297E-009
   8.6549999999999988E-002    -2.1250083789259367E-009
   8.7400000000000005E-002    -2.3074229651850016E-009
   8.8249999999999995E-002    -2.3552453097402348E-009
   8.9099999999999985E-002    -2.2680136487288668E-009
   8.9950000000000002E-002    -2.0536763717154395E-009
   9.0799999999999992E-002    -1.7278288408678310E-009
   9.1649999999999981E-002    -1.3124646232107354E-009
   9.2499999999999999E-002    -8.3434124929331957E-010
   9.3349999999999989E-002    -3.2308310700070740E-010
   9.4200000000000006E-002     1.9084345274077936E-010
   9.5049999999999996E-002     6.7813836104708868E-010
   9.5899999999999985E-002     1.1125248443293372E-009
   9.6750000000000003E-002     1.4723304688284507E-009
   9.7599999999999992E-002     1.7416919417267651E-009
   9.8449999999999982E-002     1.9113076195789012E-009
   9.9299999999999999E-002     1.9786975259591191E-009
  0.10014999999999999          1.9479611201998332E-009
  0.10099999999999998          1.8290596460529158E-009
  0.10185000000000000          1.6366826842973866E-009
  0.10269999999999999          1.3887902233855126E-009
  0.10355000000000000          1.1049440733725140E-009
  0.10439999999999999          8.0456686867856218E-010
  0.10524999999999998          5.0527418200001256E-010
  0.10610000000000000          2.2142675165680542E-010
  0.10694999999999999         -3.6958838316701202E-011
  0.10779999999999998         -2.6483021039900505E-010
  0.10865000000000000         -4.6217538817764314E-010
  0.10949999999999999         -6.3352857549927727E-010
  0.11035000000000000         -7.8693555036233965E-010
  0.11119999999999999         -9.3247207915612021E-010
  0.11204999999999998         -1.0804630028972209E-009
  0.11290000000000000         -1.2395973353395648E-009
  0.11374999999999999         -1.4151639950554846E-009
  0.11459999999999998         -1.6076366080461692E-009
  0.11545000000000000         -1.8118102929119479E-009
  0.11629999999999999         -2.0166447616737783E-009
  0.11715000000000000         -2.2058827559243899E-009
  0.11799999999999999         -2.3594313291977170E-009
  0.11884999999999998         -2.4553799053542564E-009
  0.11970000000000000         -2.4724539886308211E-009
  0.12054999999999999         -2.3926269555259971E-009
  0.12139999999999998         -2.2035798875626107E-009
  0.12225000000000000         -1.9007138726227385E-009
  0.12309999999999999         -1.4884559984153445E-009
  0.12395000000000000         -9.8069205187281516E-010
  0.12479999999999999         -4.0026291030272506E-010
  0.12564999999999998          2.2243201773934907E-010
  0.12650000000000000          8.5156285158216809E-010
  0.12734999999999999          1.4484916624332591E-009
  0.12819999999999998          1.9746018661017480E-009
  0.12905000000000000          2.3940283488503916E-009
  0.12989999999999999          2.6760091660990811E-009
  0.13074999999999998          2.7966341645122330E-009
  0.13159999999999999          2.7398345300912245E-009
  0.13245000000000001          2.4975476665454474E-009
  0.13329999999999997          2.0690736557876790E-009
  0.13414999999999999          1.4596971285595440E-009
  0.13500000000000001          6.7871825217074978E-010
  0.13584999999999997         -2.6292443216540896E-010
  0.13669999999999999         -1.3552411894988126E-009
  0.13755000000000001         -2.5918094820988816E-009
  0.13839999999999997         -3.9722183204878171E-009
  0.13924999999999998         -5.5042200751177809E-009
  0.14010000000000000         -7.2054750355452677E-009
  0.14094999999999996         -9.1048572110176854E-009
  0.14179999999999998         -1.1243351627148461E-008
  0.14265000000000000         -1.3674628943861350E-008
  0.14350000000000002         -1.6465457432323680E-008
  0.14434999999999998         -1.9696112988463457E-008
  0.14520000000000000         -2.3461091128679346E-008
  0.14605000000000001         -2.7870218422577088E-008
  0.14689999999999998         -3.3050515761663815E-008
  0.14774999999999999         -3.9148880313864389E-008
  0.14860000000000001         -4.6335745657944052E-008
  0.14944999999999997         -5.4809517099973996E-008
  0.15029999999999999         -6.4802065293851305E-008
  0.15115000000000001         -7.6584757331448994E-008
  0.15199999999999997         -9.0475220843050289E-008
  0.15284999999999999         -1.0684434948810163E-007
  0.15370000000000000         -1.2612381440708579E-007
  0.15454999999999997         -1.4881361446279911E-007
  0.15539999999999998         -1.7549020077843085E-007
  0.15625000000000000         -2.0681496805927447E-007
  0.15709999999999996         -2.4354341369364705E-007
  0.15794999999999998         -2.8653484892000798E-007
  0.15880000000000000         -3.3676386276179140E-007
  0.15965000000000001         -3.9533320340768797E-007
  0.16049999999999998         -4.6348790401404041E-007
  0.16134999999999999         -5.4263226017563019E-007
  0.16220000000000001         -6.3434762065954618E-007
  0.16304999999999997         -7.4041329670034737E-007
  0.16389999999999999         -8.6282892068942987E-007
  0.16475000000000001         -1.0038372398636156E-006
  0.16559999999999997         -1.1659488366635585E-006
  0.16644999999999999         -1.3519681347662711E-006
  0.16730000000000000         -1.5650186411913282E-006
  0.16814999999999997         -1.8085675393299234E-006
  0.16899999999999998         -2.0864535336995045E-006
  0.16985000000000000         -2.4029064197926920E-006
  0.17069999999999996         -2.7625762003870747E-006
  0.17154999999999998         -3.1705516044612882E-006
  0.17240000000000000         -3.6323832133546545E-006
  0.17325000000000002         -4.1541054630121471E-006
  0.17409999999999998         -4.7422523811675459E-006
  0.17494999999999999         -5.4038794640722537E-006
  0.17580000000000001         -6.1465778896405817E-006
  0.17664999999999997         -6.9784964925567943E-006
  0.17749999999999999         -7.9083515524949933E-006
  0.17835000000000001         -8.9454433074494920E-006
  0.17919999999999997         -1.0099665448566570E-005
  0.18004999999999999         -1.1381504945936524E-005
  0.18090000000000001         -1.2802058831412647E-005
  0.18174999999999997         -1.4373011556881487E-005
  0.18259999999999998         -1.6106637648952487E-005
  0.18345000000000000         -1.8015768520168083E-005
  0.18429999999999996         -2.0113763483354895E-005
  0.18514999999999998         -2.2414459875529658E-005
  0.18600000000000000         -2.4932104845670887E-005
  0.18684999999999996         -2.7681282910378834E-005
  0.18769999999999998         -3.0676813825456321E-005
  0.18855000000000000         -3.3933636110831485E-005
  0.18940000000000001         -3.7466686663152313E-005
  0.19024999999999997         -4.1290725000166692E-005
  0.19109999999999999         -4.5420173870091734E-005
  0.19195000000000001         -4.9868944926015388E-005
  0.19279999999999997         -5.4650210024255840E-005
  0.19364999999999999         -5.9776180434853946E-005
  0.19450000000000001         -6.5257869088793813E-005
  0.19534999999999997         -7.1104812498260718E-005
  0.19619999999999999         -7.7324786993547255E-005
  0.19705000000000000         -8.3923523246158481E-005
  0.19789999999999996         -9.0904317069179867E-005
  0.19874999999999998         -9.8267757192172216E-005
  0.19960000000000000         -1.0601129586011511E-004
  0.20044999999999996         -1.1412899796717953E-004
  0.20129999999999998         -1.2261095024469044E-004
  0.20215000000000000         -1.3144304295300475E-004
  0.20300000000000001         -1.4060652707929109E-004
  0.20384999999999998         -1.5007764889282831E-004
  0.20469999999999999         -1.5982720154452562E-004
  0.20555000000000001         -1.6982028436713961E-004
  0.20639999999999997         -1.8001585842501451E-004
  0.20724999999999999         -1.9036652303689719E-004
  0.20810000000000001         -2.0081831046807016E-004
  0.20894999999999997         -2.1131051392462614E-004
  0.20979999999999999         -2.2177536266531044E-004
  0.21065000000000000         -2.3213833766045321E-004
  0.21149999999999997         -2.4231780573397729E-004
  0.21234999999999998         -2.5222543717980372E-004
  0.21320000000000000         -2.6176638456212550E-004
  0.21404999999999996         -2.7083936421259670E-004
  0.21489999999999998         -2.7933741430147691E-004
  0.21575000000000000         -2.8714822200682903E-004
  0.21659999999999996         -2.9415485237823378E-004
  0.21744999999999998         -3.0023632041910168E-004
  0.21829999999999999         -3.0526889287970228E-004
  0.21915000000000001         -3.0912657024179054E-004
  0.21999999999999997         -3.1168240457327443E-004
  0.22084999999999999         -3.1280994312504035E-004
  0.22170000000000001         -3.1238420575263712E-004
  0.22254999999999997         -3.1028295750766511E-004
  0.22339999999999999         -3.0638869805499959E-004
  0.22425000000000000         -3.0058989833003555E-004
  0.22509999999999997         -2.9278239261181009E-004
  0.22594999999999998         -2.8287139091806758E-004
  0.22680000000000000         -2.7077267869420973E-004
  0.22764999999999996         -2.5641459282999224E-004
  0.22849999999999998         -2.3973922925296380E-004
  0.22935000000000000         -2.2070443707889438E-004
  0.23019999999999996         -1.9928487257228451E-004
  0.23104999999999998         -1.7547359876329745E-004
  0.23190000000000000         -1.4928309075911753E-004
  0.23275000000000001         -1.2074649000958644E-004
  0.23359999999999997         -8.9918332080305395E-005
  0.23444999999999999         -5.6875424183820895E-005
  0.23530000000000001         -2.1716922883658207E-005
  0.23614999999999997          1.5434824610979230E-005
  0.23699999999999999          5.4434784088156627E-005
  0.23785000000000001          9.5115362207065868E-005
  0.23869999999999997          1.3728707750165138E-004
  0.23954999999999999          1.8073888447311010E-004
  0.24040000000000000          2.2524021139928011E-004
  0.24124999999999996          2.7054112610125494E-004
  0.24209999999999998          3.1637497960630869E-004
  0.24295000000000000          3.6245961514446199E-004
  0.24379999999999996          4.0849975698423982E-004
  0.24464999999999998          4.5418940338200816E-004
  0.24550000000000000          4.9921418394305913E-004
  0.24634999999999996          5.4325415607317377E-004
  0.24719999999999998          5.8598679778411572E-004
  0.24804999999999999          6.2708974883426277E-004
  0.24890000000000001          6.6624407672585362E-004
  0.24974999999999997          7.0313748764007822E-004
  0.25059999999999999          7.3746719599572324E-004
  0.25145000000000001          7.6894311633669637E-004
  0.25229999999999997          7.9729090753864729E-004
  0.25314999999999999          8.2225505804996624E-004
  0.25400000000000000          8.4360134327602092E-004
  0.25484999999999997          8.6111967926445461E-004
  0.25569999999999998          8.7462616854912039E-004
  0.25655000000000000          8.8396590035679412E-004
  0.25739999999999996          8.8901414107965830E-004
  0.25824999999999998          8.8967828993408800E-004
  0.25910000000000000          8.8589893974583907E-004
  0.25994999999999996          8.7765079014087504E-004
  0.26079999999999998          8.6494336855933839E-004
  0.26164999999999999          8.4782106211223778E-004
  0.26249999999999996          8.2636274766205572E-004
  0.26334999999999997          8.0068168568441867E-004
  0.26419999999999999          7.7092431649899399E-004
  0.26505000000000001          7.3726885298320134E-004
  0.26589999999999997          6.9992447277479033E-004
  0.26674999999999999          6.5912830077823569E-004
  0.26760000000000000          6.1514392447217250E-004
  0.26844999999999997          5.6825858936062105E-004
  0.26929999999999998          5.1878058902253880E-004
  0.27015000000000000          4.6703669612211573E-004
  0.27099999999999996          4.1336845679424160E-004
  0.27184999999999998          3.5812957860143001E-004
  0.27270000000000000          3.0168218859758980E-004
  0.27354999999999996          2.4439396937559464E-004
  0.27439999999999998          1.8663397551034615E-004
  0.27524999999999999          1.2877033360201147E-004
  0.27609999999999996          7.1166109417729993E-005
  0.27694999999999997          1.4176685006451259E-005
  0.27779999999999999         -4.1853110316327566E-005
  0.27865000000000001         -9.6592545336542768E-005
  0.27949999999999997         -1.4972763143794888E-004
  0.28034999999999999         -2.0096257039023299E-004
  0.28120000000000001         -2.5002264915062607E-004
  0.28204999999999997         -2.9665640349974134E-004
  0.28289999999999998         -3.4063667214646409E-004
  0.28375000000000000         -3.8176233286089066E-004
  0.28459999999999996         -4.1985946270568282E-004
  0.28544999999999998         -4.5478163027995244E-004
  0.28630000000000000         -4.8641086329925641E-004
  0.28714999999999996         -5.1465710558695852E-004
  0.28799999999999998         -5.3945879398109001E-004
  0.28885000000000000         -5.6078222135204933E-004
  0.28969999999999996         -5.7862088655418831E-004
  0.29054999999999997         -5.9299423899481266E-004
  0.29139999999999999         -6.0394718976261878E-004
  0.29224999999999995         -6.1154799742289411E-004
  0.29309999999999997         -6.1588736175405268E-004
  0.29394999999999999         -6.1707634521467481E-004
  0.29480000000000001         -6.1524470245638519E-004
  0.29564999999999997         -6.1053894748832292E-004
  0.29649999999999999         -6.0312015362727839E-004
  0.29735000000000000         -5.9316192856828794E-004
  0.29819999999999997         -5.8084862109246741E-004
  0.29904999999999998         -5.6637275767533034E-004
  0.29990000000000000         -5.4993331654068121E-004
  0.30074999999999996         -5.3173347888586819E-004
  0.30159999999999998         -5.1197879558007779E-004
  0.30245000000000000         -4.9087509644701183E-004
  0.30329999999999996         -4.6862701320805428E-004
  0.30414999999999998         -4.4543598439590419E-004
  0.30499999999999999         -4.2149894538951637E-004
  0.30584999999999996         -3.9700671170940982E-004
  0.30669999999999997         -3.7214272750740800E-004
  0.30754999999999999         -3.4708201139167745E-004
  0.30840000000000001         -3.2199008989389845E-004
  0.30924999999999997         -2.9702218882919894E-004
  0.31009999999999999         -2.7232254065276184E-004
  0.31095000000000000         -2.4802380933225122E-004
  0.31179999999999997         -2.2424674732717521E-004
  0.31264999999999998         -2.0109996004651347E-004
  0.31350000000000000         -1.7867976449095156E-004
  0.31434999999999996         -1.5707032495177088E-004
  0.31519999999999998         -1.3634356935631793E-004
  0.31605000000000000         -1.1655974816124668E-004
  0.31689999999999996         -9.7767563139265092E-005
  0.31774999999999998         -8.0004582651265968E-005
  0.31859999999999999         -6.3298025181578139E-005
  0.31944999999999996         -4.7664955377486537E-005
  0.32029999999999997         -3.3113162901912614E-005
  0.32114999999999999         -1.9641834941333534E-005
  0.32199999999999995         -7.2422156923558314E-006
  0.32284999999999997          4.1016553687255836E-006
  0.32369999999999999          1.4412233047910388E-005
  0.32455000000000001          2.3717567785394496E-005
  0.32539999999999997          3.2050861625859304E-005
  0.32624999999999998          3.9449446942752042E-005
  0.32710000000000000          4.5954353012924442E-005
  0.32794999999999996          5.1609454877638513E-005
  0.32879999999999998          5.6461015512556301E-005
  0.32965000000000000          6.0556945513924365E-005
  0.33049999999999996          6.3946154688076070E-005
  0.33134999999999998          6.6678247564055086E-005
  0.33220000000000000          6.8802813037446243E-005
  0.33304999999999996          7.0369062374968041E-005
  0.33389999999999997          7.1425422022177229E-005
  0.33474999999999999          7.2019151710436209E-005
  0.33559999999999995          7.2196080571957971E-005
  0.33644999999999997          7.2000339162907464E-005
  0.33729999999999999          7.1474128846727626E-005
  0.33815000000000001          7.0657629664562892E-005
  0.33899999999999997          6.9588803145640541E-005
  0.33984999999999999          6.8303232934535104E-005
  0.34070000000000000          6.6834232590140470E-005
  0.34154999999999996          6.5212595330767429E-005
  0.34239999999999998          6.3466766894629105E-005
  0.34325000000000000          6.1622727648797974E-005