 -0.12000000000000000          0.0000000000000000
 -0.11914999999999999          0.0000000000000000
 -0.11830000000000000         -2.7858196293213793E-015
 -0.11745000000000000         -1.2757353359045711E-014
 -0.11660000000000000         -2.1484130761263782E-014
 -0.11574999999999999          1.0084434774274655E-014
 -0.11490000000000000          1.5115734535172465E-013
 -0.11405000000000000          4.6796603076810409E-013
 -0.11320000000000000          9.6825891137154928E-013
 -0.11234999999999999          1.5584538045420914E-012
 -0.11150000000000000          2.0513842434146493E-012
 -0.11065000000000000          2.2351322694953720E-012
 -0.10979999999999999          1.9701770882208204E-012
 -0.10894999999999999          1.2535689853148393E-012
 -0.10810000000000000          2.0047244324024374E-013
 -0.10725000000000000         -1.0558095187998025E-012
 -0.10639999999999999         -2.4862996391040399E-012
 -0.10554999999999999         -4.2308289851965850E-012
 -0.10470000000000000         -6.5614502700806881E-012
 -0.10385000000000000         -9.7750300338342504E-012
 -0.10299999999999999         -1.4094555654786826E-011
 -0.10214999999999999         -1.9628149444547262E-011
 -0.10130000000000000         -2.6325912019090265E-011
 -0.10045000000000000         -3.3770629474053892E-011
  -9.9599999999999994E-002    -4.0666964344422451E-011
  -9.8750000000000004E-002    -4.4135850944642506E-011
  -9.7900000000000001E-002    -3.9310770613817267E-011
  -9.7049999999999997E-002    -2.0023746039570643E-011
  -9.6199999999999994E-002     1.8771730660111591E-011
  -9.5349999999999990E-002     7.6979800314434037E-011
  -9.4500000000000001E-002     1.4517730807427713E-010
  -9.3649999999999997E-002     2.0291385399791131E-010
  -9.2799999999999994E-002     2.2239319988802702E-010
  -9.1950000000000004E-002     1.7895639524221752E-010
  -9.1100000000000000E-002     6.6513728175760414E-011
  -9.0249999999999997E-002    -8.7995553316721374E-011
  -8.9399999999999993E-002    -2.1991209554785500E-010
  -8.8549999999999990E-002    -2.4013359779736929E-010
  -8.7700000000000000E-002    -6.9091836076782902E-011
  -8.6849999999999997E-002     3.1551933299899767E-010
  -8.5999999999999993E-002     8.3489300898778546E-010
  -8.5150000000000003E-002     1.2933113570507357E-009
  -8.4300000000000000E-002     1.4118619288933496E-009
  -8.3449999999999996E-002     9.1865144393990792E-010
  -8.2600000000000007E-002    -3.2141134712753017E-010
  -8.1749999999999989E-002    -2.1797379639773244E-009
  -8.0900000000000000E-002    -4.1983924106936817E-009
  -8.0049999999999996E-002    -5.6392181761581816E-009
  -7.9199999999999993E-002    -5.6711975305685473E-009
  -7.8350000000000003E-002    -3.6687695443300919E-009
  -7.7499999999999999E-002     4.6185615106172220E-010
  -7.6649999999999996E-002     6.0496385369304249E-009
  -7.5800000000000006E-002     1.1639812409554839E-008
  -7.4949999999999989E-002     1.5260622016821703E-008
  -7.4099999999999999E-002     1.4955881121828253E-008
  -7.3249999999999996E-002     9.4570792333182944E-009
  -7.2399999999999992E-002    -1.2140302360488229E-009
  -7.1550000000000002E-002    -1.5441994665040270E-008
  -7.0699999999999999E-002    -3.0180328717856461E-008
  -6.9849999999999995E-002    -4.1608683637853939E-008
  -6.9000000000000006E-002    -4.6138467700483462E-008
  -6.8149999999999988E-002    -4.1471117749230059E-008
  -6.7299999999999999E-002    -2.7351216205589703E-008
  -6.6449999999999995E-002    -5.7203988852298240E-009
  -6.5599999999999992E-002     1.9836441402248672E-008
  -6.4750000000000002E-002     4.5208155999900077E-008
  -6.3899999999999998E-002     6.7060963639794166E-008
  -6.3049999999999995E-002     8.3833697498358843E-008
  -6.2199999999999998E-002     9.5990156060250815E-008
  -6.1350000000000002E-002     1.0533478401030635E-007
  -6.0499999999999998E-002     1.1354986218945674E-007
  -5.9650000000000002E-002     1.2045630907012672E-007
  -5.8799999999999998E-002     1.2269934831073009E-007
  -5.7950000000000002E-002     1.1351785366977332E-007
  -5.7099999999999998E-002     8.3954503286961458E-008
  -5.6249999999999994E-002     2.5383590996201834E-008
  -5.5400000000000005E-002    -6.7271080637087883E-008
  -5.4550000000000001E-002    -1.9259452136413496E-007
  -5.3699999999999998E-002    -3.4101493641975773E-007
  -5.2849999999999994E-002    -4.9509641803068320E-007
  -5.2000000000000005E-002    -6.3188328649796397E-007
  -5.1150000000000001E-002    -7.2671898073368426E-007
  -5.0299999999999997E-002    -7.5744662497638672E-007
  -4.9449999999999994E-002    -7.0773723559381074E-007
  -4.8600000000000004E-002    -5.6854771144597862E-007
  -4.7750000000000001E-002    -3.3734673800113392E-007
  -4.6899999999999997E-002    -1.5506329980980285E-008
  -4.6049999999999994E-002     3.9508455953656851E-007
  -4.5200000000000004E-002     8.9487606456265190E-007
  -4.4350000000000001E-002     1.4878984263350970E-006
  -4.3499999999999997E-002     2.1809218077218319E-006
  -4.2649999999999993E-002     2.9809466351133902E-006
  -4.1800000000000004E-002     3.8922103643626704E-006
  -4.0950000000000000E-002     4.9141689058707326E-006
  -4.0099999999999997E-002     6.0417109489493888E-006
  -3.9249999999999993E-002     7.2681053668529725E-006
  -3.8400000000000004E-002     8.5902683331186295E-006
  -3.7550000000000000E-002     1.0015076825081156E-005
  -3.6699999999999997E-002     1.1564905891600259E-005
  -3.5850000000000007E-002     1.3280815734664155E-005
  -3.5000000000000003E-002     1.5222535257225015E-005
  -3.4150000000000000E-002     1.7465589835779695E-005
  -3.3299999999999996E-002     2.0096719450359292E-005
  -3.2450000000000007E-002     2.3209294194555098E-005
  -3.1600000000000003E-002     2.6900607938765006E-005
  -3.0750000000000000E-002     3.1272075367970987E-005
  -2.9899999999999996E-002     3.6432057480835283E-005
  -2.9050000000000006E-002     4.2500438682586923E-005
  -2.8200000000000003E-002     4.9613300246094657E-005
  -2.7349999999999999E-002     5.7926197077629675E-005
  -2.6499999999999996E-002     6.7615363590748474E-005
  -2.5650000000000006E-002     7.8876718192379233E-005
  -2.4800000000000003E-002     9.1924466472414850E-005
  -2.3949999999999999E-002     1.0699013408778488E-004
  -2.3099999999999996E-002     1.2432399795591113E-004
  -2.2250000000000006E-002     1.4419904129630586E-004
  -2.1400000000000002E-002     1.6691707891546901E-004
  -2.0549999999999999E-002     1.9281534392918520E-004
  -1.9699999999999995E-002     2.2227157384449093E-004
  -1.8850000000000006E-002     2.5570719515588937E-004
  -1.8000000000000002E-002     2.9358683782787346E-004
  -1.7149999999999999E-002     3.3641673581784836E-004
  -1.6299999999999995E-002     3.8474169155842996E-004
  -1.5450000000000005E-002     4.3914529407269257E-004
  -1.4600000000000002E-002     5.0025440303687525E-004
  -1.3749999999999998E-002     5.6874452878465456E-004
  -1.2899999999999995E-002     6.4534935287930426E-004
  -1.2050000000000005E-002     7.3086762186336783E-004
  -1.1200000000000002E-002     8.2616566389422889E-004
  -1.0349999999999998E-002     9.3217323337227670E-004
  -9.5000000000000084E-003     1.0498721707608459E-003
  -8.6500000000000049E-003     1.1802811434329747E-003
  -7.8000000000000014E-003     1.3244415946861141E-003
  -6.9499999999999978E-003     1.4834027216683423E-003
  -6.1000000000000082E-003     1.6582188878009160E-003
  -5.2500000000000047E-003     1.8499506966252279E-003
  -4.4000000000000011E-003     2.0596701010440815E-003
  -3.5499999999999976E-003     2.2884659135532681E-003
  -2.7000000000000079E-003     2.5374363792506427E-003
  -1.8500000000000044E-003     2.8076797699526359E-003
  -1.0000000000000009E-003     3.1002689026221404E-003
  -1.4999999999999736E-004     3.4162103445964003E-003
   6.9999999999999230E-004     3.7564083272555709E-003
   1.5499999999999958E-003     4.1216119260065187E-003
   2.3999999999999994E-003     4.5124016486283187E-003
   3.2500000000000029E-003     4.9291613164592950E-003
   4.0999999999999925E-003     5.3720683534925189E-003
   4.9499999999999961E-003     5.8410951572053175E-003
   5.7999999999999996E-003     6.3360043334588084E-003
   6.6499999999999893E-003     6.8563278428312967E-003
   7.5000000000000067E-003     7.4013306227349515E-003
   8.3499999999999963E-003     7.9699599758054091E-003
   9.1999999999999860E-003     8.5607971873071266E-003
   1.0050000000000003E-002     9.1719941078132038E-003
   1.0899999999999993E-002     9.8012007233102983E-003
   1.1750000000000010E-002     1.0445557127636756E-002
   1.2600000000000000E-002     1.1101606398368102E-002
   1.3449999999999990E-002     1.1765305170623649E-002
   1.4300000000000007E-002     1.2432060689666131E-002
   1.5149999999999997E-002     1.3096675109112145E-002
   1.5999999999999986E-002     1.3753405116057273E-002
   1.6850000000000004E-002     1.4395958509977613E-002
   1.7699999999999994E-002     1.5017430493927685E-002
   1.8549999999999983E-002     1.5610312658232784E-002
   1.9400000000000001E-002     1.6166502519009470E-002
   2.0249999999999990E-002     1.6677314445159092E-002
   2.1100000000000008E-002     1.7133481915037156E-002
   2.1949999999999997E-002     1.7525182722885505E-002
   2.2799999999999987E-002     1.7842237025202729E-002
   2.3650000000000004E-002     1.8074062269685890E-002
   2.4499999999999994E-002     1.8209764639093018E-002
   2.5349999999999984E-002     1.8238335495790618E-002
   2.6200000000000001E-002     1.8148729002899759E-002
   2.7049999999999991E-002     1.7929952763941982E-002
   2.7900000000000008E-002     1.7571083842171244E-002
   2.8749999999999998E-002     1.7061433484033356E-002
   2.9599999999999987E-002     1.6390689107988254E-002
   3.0450000000000005E-002     1.5549101602742572E-002
   3.1299999999999994E-002     1.4527751029579556E-002
   3.2149999999999984E-002     1.3318626860365831E-002
   3.3000000000000002E-002     1.1914724508030978E-002
   3.3849999999999991E-002     1.0310355440922059E-002
   3.4700000000000009E-002     8.5013435458797023E-003
   3.5549999999999998E-002     6.4850950873803874E-003
   3.6399999999999988E-002     4.2606857910343649E-003
   3.7250000000000005E-002     1.8290921251542724E-003
   3.8099999999999995E-002    -8.0670900472178337E-004
   3.8949999999999985E-002    -3.6416292229163533E-003
   3.9800000000000002E-002    -6.6681195147597315E-003
   4.0649999999999992E-002    -9.8763530079473104E-003
   4.1500000000000009E-002    -1.3254010607338079E-002
   4.2349999999999999E-002    -1.6786127637053304E-002
   4.3199999999999988E-002    -2.0455306539480602E-002
   4.4050000000000006E-002    -2.4241495801384336E-002
   4.4899999999999995E-002    -2.8122101518505641E-002
   4.5749999999999985E-002    -3.2072141625843396E-002
   4.6600000000000003E-002    -3.6064318546596377E-002
   4.7449999999999992E-002    -4.0069313420368818E-002
   4.8299999999999982E-002    -4.4055949578520187E-002
   4.9149999999999999E-002    -4.7991339446835757E-002
   4.9999999999999989E-002    -5.1841247238523153E-002
   5.0850000000000006E-002    -5.5570238763206749E-002
   5.1699999999999996E-002    -5.9141987680857322E-002
   5.2549999999999986E-002    -6.2519631851805799E-002
   5.3400000000000003E-002    -6.5665876727568392E-002
   5.4249999999999993E-002    -6.8543630417240112E-002
   5.5099999999999982E-002    -7.1116479270726951E-002
   5.5950000000000000E-002    -7.3349212339857292E-002
   5.6799999999999989E-002    -7.5208244299497837E-002
   5.7650000000000007E-002    -7.6661995375735287E-002
   5.8499999999999996E-002    -7.7681507514442111E-002
   5.9349999999999986E-002    -7.8240651310571188E-002
   6.0200000000000004E-002    -7.8316422366995445E-002
   6.1049999999999993E-002    -7.7889275786733991E-002
   6.1899999999999983E-002    -7.6943462434415633E-002
   6.2750000000000000E-002    -7.5467468107871791E-002
   6.3599999999999990E-002    -7.3454401689008436E-002
   6.4450000000000007E-002    -7.0902103894609506E-002
   6.5299999999999997E-002    -6.7813387752247850E-002
   6.6149999999999987E-002    -6.4196258878969237E-002
   6.7000000000000004E-002    -6.0064048506135920E-002
   6.7849999999999994E-002    -5.5435361610010489E-002
   6.8699999999999983E-002    -5.0333854246923680E-002
   6.9550000000000001E-002    -4.4788063607668044E-002
   7.0399999999999990E-002    -3.8831291189633077E-002
   7.1249999999999980E-002    -3.2501326789124554E-002
   7.2099999999999997E-002    -2.5840057297961409E-002
   7.2949999999999987E-002    -1.8893401313182904E-002
   7.3800000000000004E-002    -1.1710831833478827E-002
   7.4649999999999994E-002    -4.3448758675382892E-003
   7.5499999999999984E-002     3.1492274775462561E-003
   7.6350000000000001E-002     1.0714307210816520E-002
   7.7199999999999991E-002     1.8291717606774980E-002
   7.8049999999999981E-002     2.5822271347142760E-002
   7.8899999999999998E-002     3.3246845485329024E-002
   7.9749999999999988E-002     4.0506840155573862E-002
   8.0600000000000005E-002     4.7544909723652710E-002
   8.1449999999999995E-002     5.4305311657502277E-002
   8.2299999999999984E-002     6.0734446111606201E-002
   8.3150000000000002E-002     6.6781586178213379E-002
   8.3999999999999991E-002     7.2399339880146754E-002
   8.4849999999999981E-002     7.7544123215019495E-002
   8.5699999999999998E-002     8.2176871556486855E-002
   8.6549999999999988E-002     8.6263588708403199E-002
   8.7400000000000005E-002     8.9775425422286378E-002
   8.8249999999999995E-002     9.2689101485195602E-002
   8.9099999999999985E-002     9.4986990414894085E-002
   8.9950000000000002E-002     9.6657296246592750E-002
   9.0799999999999992E-002     9.7694134689253948E-002
   9.1649999999999981E-002     9.8097253621085997E-002
   9.2499999999999999E-002     9.7872043174447698E-002
   9.3349999999999989E-002     9.7029311386587366E-002
   9.4200000000000006E-002     9.5585732948032090E-002
   9.5049999999999996E-002     9.3563346591244947E-002
   9.5899999999999985E-002     9.0989004466514811E-002
   9.6750000000000003E-002     8.7894062184557531E-002
   9.7599999999999992E-002     8.4314052532104763E-002
   9.8449999999999982E-002     8.0288313116380461E-002
   9.9299999999999999E-002     7.5859031283214237E-002
  0.10014999999999999          7.1070919843988889E-002
  0.10099999999999998          6.5970655080857629E-002
  0.10185000000000000          6.0606600928161190E-002
  0.10269999999999999          5.5028027584327600E-002
  0.10355000000000000          4.9284545933259913E-002
  0.10439999999999999          4.3425686940031523E-002
  0.10524999999999998          3.7500581979809523E-002
  0.10610000000000000          3.1557369719584949E-002
  0.10694999999999999          2.5642465175622915E-002
  0.10779999999999998          1.9800234436924892E-002
  0.10865000000000000          1.4072760492101630E-002
  0.10949999999999999          8.4993497144227083E-003
  0.11035000000000000          3.1161538291438647E-003
  0.11119999999999999         -2.0439064578056578E-003
  0.11204999999999998         -6.9514710202097938E-003
  0.11290000000000000         -1.1580703615645036E-002
  0.11374999999999999         -1.5909436999382486E-002
  0.11459999999999998         -1.9919357807609190E-002
  0.11545000000000000         -2.3595907981640001E-002
  0.11629999999999999         -2.6928376120437442E-002
  0.11715000000000000         -2.9909689443635666E-002
  0.11799999999999999         -3.2536284752798197E-002
  0.11884999999999998         -3.4808064436375845E-002
  0.11970000000000000         -3.6728007160110231E-002
  0.12054999999999999         -3.8302123765267405E-002
  0.12139999999999998         -3.9539262972350400E-002
  0.12225000000000000         -4.0450669154036917E-002
  0.12309999999999999         -4.1049881692533076E-002
  0.12395000000000000         -4.1352424309784384E-002
  0.12479999999999999         -4.1375481690835755E-002
  0.12564999999999998         -4.1137712211970628E-002
  0.12650000000000000         -4.0658773264283986E-002
  0.12734999999999999         -3.9959099460701586E-002
  0.12819999999999998         -3.9059615919188044E-002
  0.12905000000000000         -3.7981511742692424E-002
  0.12989999999999999         -3.6746021033285427E-002
  0.13074999999999998         -3.5374295685232066E-002
  0.13159999999999999         -3.3887189105199236E-002
  0.13245000000000001         -3.2305054688435253E-002
  0.13329999999999997         -3.0647579941585811E-002
  0.13414999999999999         -2.8933507921800009E-002
  0.13500000000000001         -2.7180522255018075E-002
  0.13584999999999997         -2.5405206812740905E-002
  0.13669999999999999         -2.3622886172378600E-002
  0.13755000000000001         -2.1847567250758530E-002
  0.13839999999999997         -2.0091997088273073E-002
  0.13924999999999998         -1.8367666092648841E-002
  0.14010000000000000         -1.6684886586108661E-002
  0.14094999999999996         -1.5052789420529088E-002
  0.14179999999999998         -1.3479264170790664E-002
  0.14265000000000000         -1.1970913413751389E-002
  0.14350000000000002         -1.0533035667976752E-002
  0.14434999999999998         -9.1696986193182065E-003
  0.14520000000000000         -7.8838728146202967E-003
  0.14605000000000001         -6.6775265517700112E-003
  0.14689999999999998         -5.5517324497253899E-003
  0.14774999999999999         -4.5068156833751091E-003
  0.14860000000000001         -3.5424000350153155E-003
  0.14944999999999997         -2.6575116584304256E-003
  0.15029999999999999         -1.8506033368041450E-003
  0.15115000000000001         -1.1195754533102496E-003
  0.15199999999999997         -4.6182553832747848E-004
  0.15284999999999999          1.2573861546679433E-004
  0.15370000000000000          6.4660659018540075E-004
  0.15454999999999997          1.1044659427874057E-003
  0.15539999999999998          1.5030872087398856E-003
  0.15625000000000000          1.8462713363339689E-003
  0.15709999999999996          2.1378016445843624E-003
  0.15794999999999998          2.3814346409288490E-003
  0.15880000000000000          2.5808987896724380E-003
  0.15965000000000001          2.7399517964550703E-003
  0.16049999999999998          2.8623393991353656E-003
  0.16134999999999999          2.9517489708050758E-003
  0.16220000000000001          3.0116950260945558E-003
  0.16304999999999997          3.0454486963757046E-003
  0.16389999999999999          3.0560363510641671E-003
  0.16475000000000001          3.0462165012447124E-003
  0.16559999999999997          3.0185334323327637E-003
  0.16644999999999999          2.9753960418989591E-003
  0.16730000000000000          2.9191272109643572E-003
  0.16814999999999997          2.8519987687506097E-003
  0.16899999999999998          2.7761951764948907E-003
  0.16985000000000000          2.6937563035768519E-003
  0.17069999999999996          2.6064688237720955E-003
  0.17154999999999998          2.5157628133948050E-003
  0.17240000000000000          2.4226890909945860E-003
  0.17325000000000002          2.3279868334004964E-003
  0.17409999999999998          2.2322073205786200E-003
  0.17494999999999999          2.1358626356048089E-003
  0.17580000000000001          2.0395753476672909E-003
  0.17664999999999997          1.9441264184631686E-003
  0.17749999999999999          1.8504168467718951E-003
  0.17835000000000001          1.7593269412301896E-003
  0.17919999999999997          1.6715806117355812E-003
  0.18004999999999999          1.5876242839160473E-003
  0.18090000000000001          1.5075581362677681E-003
  0.18174999999999997          1.4311635761517282E-003
  0.18259999999999998          1.3580312038787888E-003
  0.18345000000000000          1.2877338000440708E-003
  0.18429999999999996          1.2199923749561415E-003
  0.18514999999999998          1.1548047610518185E-003
  0.18600000000000000          1.0924116445452995E-003
  0.18684999999999996          1.0331778198298515E-003
  0.18769999999999998          9.7744971706797816E-004
  0.18855000000000000          9.2540781354647178E-004
  0.18940000000000001          8.7696548522825271E-004
  0.19024999999999997          8.3176773638879713E-004
  0.19109999999999999          7.8929331708440880E-004
  0.19195000000000001          7.4900413796842970E-004
  0.19279999999999997          7.1048417832747426E-004
  0.19364999999999999          6.7351756545945356E-004
  0.19450000000000001          6.3810393726053286E-004
  0.19534999999999997          6.0440096981137135E-004
  0.19619999999999999          5.7259529642822665E-004
  0.19705000000000000          5.4280550536132315E-004
  0.19789999999999996          5.1501158709941184E-004
  0.19874999999999998          4.8904579974189631E-004
  0.19960000000000000          4.6465533661160932E-004
  0.20044999999999996          4.4159544771915919E-004
  0.20129999999999998          4.1970778013333511E-004
  0.20215000000000000          3.9894536653188611E-004
  0.20300000000000001          3.7934971484153624E-004
  0.20384999999999998          3.6098111121471698E-004
  0.20469999999999999          3.4385037335881265E-004
  0.20555000000000001          3.2787382237088277E-004
  0.20639999999999997          3.1288095303924862E-004
  0.20724999999999999          2.9866073039580950E-004
  0.20810000000000001          2.8504641863601735E-004
  0.20894999999999997          2.7198828101758065E-004
  0.20979999999999999          2.5958062129002803E-004
  0.21065000000000000          2.4802984464443234E-004
  0.21149999999999997          2.3756969582409762E-004
  0.21234999999999998          2.2836156337861007E-004
  0.21320000000000000          2.2040232723647123E-004
  0.21404999999999996          2.1350411251357110E-004
  0.21489999999999998          2.0734562393215610E-004
  0.21575000000000000          2.0155423502513548E-004
  0.21659999999999996          1.9582709065369625E-004
  0.21744999999999998          1.9002966815329328E-004
  0.21829999999999999          1.8422088615489157E-004
  0.21915000000000001          1.7861649293422513E-004
  0.21999999999999997          1.7348851034644091E-004
  0.22084999999999999          1.6905245871055291E-004
  0.22170000000000001          1.6537341417841557E-004
  0.22254999999999997          1.6232552902487727E-004
  0.22339999999999999          1.5962589059978198E-004
  0.22425000000000000          1.5692474849811079E-004
  0.22509999999999997          1.5391349559042033E-004
  0.22594999999999998          1.5041196720352450E-004
  0.22680000000000000          1.4640817381227620E-004
  0.22764999999999996          1.4204008958081311E-004
  0.22849999999999998          1.3752644649003427E-004
  0.22935000000000000          1.3307172048564146E-004
  0.23019999999999996          1.2879772496805005E-004
  0.23104999999999998          1.2471048321106981E-004
  0.23190000000000000          1.2071092283952454E-004
  0.23275000000000001          1.1664819018191274E-004
  0.23359999999999997          1.1237408600269129E-004
  0.23444999999999999          1.0779328051045580E-004
  0.23530000000000001          1.0288201533877927E-004
  0.23614999999999997          9.7670753911819046E-005
  0.23699999999999999          9.2221989484971047E-005
  0.23785000000000001          8.6598987501051552E-005
  0.23869999999999997          8.0856424234474494E-005
  0.23954999999999999          7.5052852891062678E-005
  0.24040000000000000          6.9268171121769913E-005
  0.24124999999999996          6.3610312901077941E-005
  0.24209999999999998          5.8204476494302769E-005
  0.24295000000000000          5.3165997263218948E-005
  0.24379999999999996          4.8557800264296727E-005
  0.24464999999999998          4.4355904314918133E-005
  0.24550000000000000          4.0438727300394052E-005
  0.24634999999999996          3.6623258782603803E-005
  0.24719999999999998          3.2734479100362046E-005
  0.24804999999999999          2.8683982844232354E-005
  0.24890000000000001          2.4534278837986076E-005
  0.24974999999999997          2.0510240999740839E-005
  0.25059999999999999          1.6948355100492323E-005
  0.25145000000000001          1.4198623899605609E-005
  0.25229999999999997          1.2502785765162311E-005
  0.25314999999999999          1.1899434027418227E-005
  0.25400000000000000          1.2189667877380980E-005
  0.25484999999999997          1.2984310497063434E-005
  0.25569999999999998          1.3827278723245806E-005
  0.25655000000000000          1.4345125776253520E-005
  0.25739999999999996          1.4378142937757400E-005
  0.25824999999999998          1.4047621883232017E-005
  0.25910000000000000          1.3723790726631901E-005
  0.25994999999999996          1.3902830370550667E-005
  0.26079999999999998          1.5043252067217622E-005
  0.26164999999999999          1.7405815475807551E-005
  0.26249999999999996          2.0954701748258616E-005
  0.26334999999999997          2.5357518521441504E-005
  0.26419999999999999          3.0083200022433532E-005
  0.26505000000000001          3.4564926980841442E-005
  0.26589999999999997          3.8367093421037779E-005
  0.26674999999999999          4.1312273582217983E-005
  0.26760000000000000          4.3516553992718116E-005
  0.26844999999999997          4.5327596855649947E-005
  0.26929999999999998          4.7190678483998870E-005
  0.27015000000000000          4.9493306598197265E-005
  0.27099999999999996          5.2438028592272323E-005
  0.27184999999999998          5.5973755930557382E-005
  0.27270000000000000          5.9816675532633709E-005
  0.27354999999999996          6.3541168779423414E-005
  0.27439999999999998          6.6704707972808827E-005
  0.27524999999999999          6.8965017612408169E-005
  0.27609999999999996          7.0160690691938816E-005
  0.27694999999999997          7.0330642032554182E-005
  0.27779999999999999          6.9678816718437176E-005
  0.27865000000000001          6.8502315317692735E-005
  0.27949999999999997          6.7101079210738710E-005
  0.28034999999999999          6.5699678782129214E-005
  0.28120000000000001          6.4403095731379773E-005
  0.28204999999999997          6.3181632556807475E-005
  0.28289999999999998          6.1881467692656548E-005
  0.28375000000000000          6.0268007513226897E-005
  0.28459999999999996          5.8077844640691596E-005
  0.28544999999999998          5.5073168080403287E-005
  0.28630000000000000          5.1099999868637193E-005
  0.28714999999999996          4.6131888880105029E-005
  0.28799999999999998          4.0291240256010017E-005
  0.28885000000000000          3.3839040277673225E-005
  0.28969999999999996          2.7128967756028006E-005
  0.29054999999999997          2.0532560782593453E-005
  0.29139999999999999          1.4349853118864572E-005
  0.29224999999999995          8.7312336895354435E-006
  0.29309999999999997          3.6363669211058404E-006
  0.29394999999999999         -1.1474698247317889E-006
  0.29480000000000001         -5.9311429297038319E-006
  0.29564999999999997         -1.1008498355547866E-005
  0.29649999999999999         -1.6539675659397723E-005
  0.29735000000000000         -2.2469924819443677E-005
  0.29819999999999997         -2.8514845464253534E-005
  0.29904999999999998         -3.4229237664222897E-005
  0.29990000000000000         -3.9134442808604646E-005
  0.30074999999999996         -4.2864835900658047E-005
  0.30159999999999998         -4.5287113476930897E-005
  0.30245000000000000         -4.6546000454962136E-005
  0.30329999999999996         -4.7018321437231971E-005
  0.30414999999999998         -4.7190501905067021E-005
  0.30499999999999999         -4.7499052138398017E-005
  0.30584999999999996         -4.8186794623370504E-005
  0.30669999999999997         -4.9227026888019766E-005
  0.30754999999999999         -5.0345399029076640E-005
  0.30840000000000001         -5.1126279584724917E-005
  0.30924999999999997         -5.1166776299617563E-005
  0.31009999999999999         -5.0225319023294965E-005
  0.31095000000000000         -4.8314875455203480E-005
  0.31179999999999997         -4.5708232139610604E-005
  0.31264999999999998         -4.2859817487640885E-005
  0.31350000000000000         -4.0277329565137781E-005
  0.31434999999999996         -3.8388723217109964E-005
  0.31519999999999998         -3.7452798415157264E-005
  0.31605000000000000         -3.7542423871042074E-005
  0.31689999999999996         -3.8596654095918692E-005
  0.31774999999999998         -4.0513761628446085E-005
  0.31859999999999999         -4.3249273749962523E-005
  0.31944999999999996         -4.6876589006350309E-005
  0.32029999999999997         -5.1591949647473493E-005
  0.32114999999999999         -5.7671298105036530E-005
  0.32199999999999995         -6.5403496399036931E-005
  0.32284999999999997         -7.5033911648475174E-005
  0.32369999999999999         -8.6745759795435617E-005
  0.32455000000000001         -1.0068236300456865E-004
  0.32539999999999997         -1.1700110920432299E-004
  0.32624999999999998         -1.3593081548187981E-004
  0.32710000000000000         -1.5779973089058915E-004
  0.32794999999999996         -1.8301688648911208E-004
  0.32879999999999998         -2.1201150078454546E-004
  0.32965000000000000         -2.4515149134404877E-004
  0.33049999999999996         -2.8267857521162829E-004
  0.33134999999999998         -3.2469145382401081E-004
  0.33220000000000000         -3.7118698404732238E-004
  0.33304999999999996         -4.2214890183829334E-004
  0.33389999999999997         -4.7765049956666081E-004
  0.33474999999999999         -5.3792832237684084E-004
  0.33559999999999995         -6.0339717022756510E-004
  0.33644999999999997         -6.7459352480847199E-004
  0.33729999999999999         -7.5206150036184565E-004
  0.33815000000000001         -8.3622190833229442E-004
  0.33899999999999997         -9.2726838180594881E-004
  0.33984999999999999         -1.0251273384073211E-003
  0.34070000000000000         -1.1295006889684824E-003
  0.34154999999999996         -1.2399701300107569E-003
  0.34239999999999998         -1.3561227302500351E-003