 -0.12000000000000000          0.0000000000000000
 -0.11914999999999999          0.0000000000000000
 -0.11830000000000000          0.0000000000000000
 -0.11745000000000000          0.0000000000000000
 -0.11660000000000000          0.0000000000000000
 -0.11574999999999999          0.0000000000000000
 -0.11490000000000000          0.0000000000000000
 -0.11405000000000000          0.0000000000000000
 -0.11320000000000000         -6.0092279118756392E-027
 -0.11234999999999999         -9.2064834220411741E-026
 -0.11150000000000000         -7.0583419841330165E-025
 -0.11065000000000000         -3.5663814739429823E-024
 -0.10979999999999999         -1.3098520455718056E-023
 -0.10894999999999999         -3.5960690601855157E-023
 -0.10810000000000000         -7.0497712376964045E-023
 -0.10725000000000000         -7.1101344889413225E-023
 -0.10639999999999999          1.2411257356749675E-022
 -0.10554999999999999          8.7745480070464815E-022
 -0.10470000000000000          2.7315405563216707E-021
 -0.10385000000000000          6.0380243028375037E-021
 -0.10299999999999999          9.9216389182121101E-021
 -0.10214999999999999          1.0478931488848590E-020
 -0.10130000000000000         -1.1453315976175307E-021
 -0.10045000000000000         -3.8835045359211500E-020
  -9.9599999999999994E-002    -1.1635386963446081E-019
  -9.8750000000000004E-002    -2.3340047132271915E-019
  -9.7900000000000001E-002    -3.5221867326499458E-019
  -9.7049999999999997E-002    -3.7160799740671738E-019
  -9.6199999999999994E-002    -1.1649124588993613E-019
  -9.5349999999999990E-002     6.2846274325032077E-019
  -9.4500000000000001E-002     2.0124533628632322E-018
  -9.3649999999999997E-002     3.9314069496493197E-018
  -9.2799999999999994E-002     5.7996742221480431E-018
  -9.1950000000000004E-002     6.3871504408706917E-018
  -9.1100000000000000E-002     3.8877897376477997E-018
  -9.0249999999999997E-002    -3.6069295159751874E-018
  -8.9399999999999993E-002    -1.7146176041339188E-017
  -8.8549999999999990E-002    -3.5594307738678172E-017
  -8.7700000000000000E-002    -5.4357536519363955E-017
  -8.6849999999999997E-002    -6.4847168494464164E-017
  -8.5999999999999993E-002    -5.5452574089486690E-017
  -8.5150000000000003E-002    -1.4553868321689198E-017
  -8.4300000000000000E-002     6.4531338142453280E-017
  -8.3449999999999996E-002     1.7769258550194930E-016
  -8.2600000000000007E-002     3.0519233792190121E-016
  -8.1749999999999989E-002     4.1025207774862093E-016
  -8.0900000000000000E-002     4.4311572220224768E-016
  -8.0049999999999996E-002     3.5136391115469652E-016
  -7.9199999999999993E-002     9.5281001264539184E-017
  -7.8350000000000003E-002    -3.3494503906009684E-016
  -7.7499999999999999E-002    -9.0469691436405431E-016
  -7.6649999999999996E-002    -1.5275475610394120E-015
  -7.5800000000000006E-002    -2.0680958028172398E-015
  -7.4949999999999989E-002    -2.3559228184349632E-015
  -7.4099999999999999E-002    -2.2096624190463149E-015
  -7.3249999999999996E-002    -1.4693003878373295E-015
  -7.2399999999999992E-002    -3.4969722571364898E-017
  -7.1550000000000002E-002     2.0894473131708427E-015
  -7.0699999999999999E-002     4.7514477141499897E-015
  -6.9849999999999995E-002     7.6122795466306141E-015
  -6.9000000000000006E-002     1.0132414645371443E-014
  -6.8149999999999988E-002     1.1602011502632744E-014
  -6.7299999999999999E-002     1.1237180775716631E-014
  -6.6449999999999995E-002     8.3491441394995434E-015
  -6.5599999999999992E-002     2.5658562737079469E-015
  -6.4750000000000002E-002    -5.9491351785131774E-015
  -6.3899999999999998E-002    -1.6363151476886053E-014
  -6.3049999999999995E-002    -2.7209660610526310E-014
  -6.2199999999999998E-002    -3.6635937893980832E-014
  -6.1350000000000002E-002    -4.2826566062878568E-014
  -6.0499999999999998E-002    -4.4468703921139272E-014
  -5.9650000000000002E-002    -4.1053541307378262E-014
  -5.8799999999999998E-002    -3.2812867467251145E-014
  -5.7950000000000002E-002    -2.0203551700136050E-014
  -5.7099999999999998E-002    -3.0670304943631924E-015
  -5.6249999999999994E-002     2.0159950330821277E-014
  -5.5400000000000005E-002     5.2635901102406903E-014
  -5.4550000000000001E-002     9.8188926322129887E-014
  -5.3699999999999998E-002     1.5906459116065261E-013
  -5.2849999999999994E-002     2.3269436220772664E-013
  -5.2000000000000005E-002     3.0847993777214477E-013
  -5.1150000000000001E-002     3.6606443169193431E-013
  -5.0299999999999997E-002     3.7658236161899938E-013
  -4.9449999999999994E-002     3.0776897551849222E-013
  -4.8600000000000004E-002     1.3261469612620976E-013
  -4.7750000000000001E-002    -1.6020661754461690E-013
  -4.6899999999999997E-002    -5.5708998406934454E-013
  -4.6049999999999994E-002    -1.0147291175921188E-012
  -4.5200000000000004E-002    -1.4622688596426731E-012
  -4.4350000000000001E-002    -1.8108582019713055E-012
  -4.3499999999999997E-002    -1.9686044846561822E-012
  -4.2649999999999993E-002    -1.8569033670767150E-012
  -4.1800000000000004E-002    -1.4235423166329509E-012
  -4.0950000000000000E-002    -6.4938049428303832E-013
  -4.0099999999999997E-002     4.5147443372459585E-013
  -3.9249999999999993E-002     1.8344753557452001E-012
  -3.8400000000000004E-002     3.4246001720323376E-012
  -3.7550000000000000E-002     5.1083115876732150E-012
  -3.6699999999999997E-002     6.7166601525907102E-012
  -3.5850000000000007E-002     8.0057066872829430E-012
  -3.5000000000000003E-002     8.6474789578895187E-012
  -3.4150000000000000E-002     8.2481069062056365E-012
  -3.3299999999999996E-002     6.4064128741075109E-012
  -3.2450000000000007E-002     2.8149208889296173E-012
  -3.1600000000000003E-002    -2.6118298745894273E-012
  -3.0750000000000000E-002    -9.6142369992006393E-012
  -2.9899999999999996E-002    -1.7512872317265382E-011
  -2.9050000000000006E-002    -2.5222117490530125E-011
  -2.8200000000000003E-002    -3.1373286864395902E-011
  -2.7349999999999999E-002    -3.4536739065245049E-011
  -2.6499999999999996E-002    -3.3497699883921962E-011
  -2.5650000000000006E-002    -2.7515706296927369E-011
  -2.4800000000000003E-002    -1.6494613650233212E-011
  -2.3949999999999999E-002    -1.0142344032467436E-012
  -2.3099999999999996E-002     1.7778916606430260E-011
  -2.2250000000000006E-002     3.8371301085422529E-011
  -2.1400000000000002E-002     5.9083960360139190E-011
  -2.0549999999999999E-002     7.8184503506388264E-011
  -1.9699999999999995E-002     9.3858291185376592E-011
  -1.8850000000000006E-002     1.0406324726265176E-010
  -1.8000000000000002E-002     1.0637632461844193E-010
  -1.7149999999999999E-002     9.7994821080773967E-011
  -1.6299999999999995E-002     7.6047596491329703E-011
  -1.5450000000000005E-002     3.8285634244710648E-011
  -1.4600000000000002E-002    -1.5928141155076092E-011
  -1.3749999999999998E-002    -8.4576125646320750E-011
  -1.2899999999999995E-002    -1.6225496243706243E-010
  -1.2050000000000005E-002    -2.4012868321413966E-010
  -1.1200000000000002E-002    -3.0680334376446222E-010
  -1.0349999999999998E-002    -3.5010049704535579E-010
  -9.5000000000000084E-003    -3.5939298993925549E-010
  -8.6500000000000049E-003    -3.2790881770312161E-010
  -7.8000000000000014E-003    -2.5431747841202121E-010
  -6.9499999999999978E-003    -1.4305449057303726E-010
  -6.1000000000000082E-003    -3.2077095850808029E-012
  -5.2500000000000047E-003     1.5371964327747908E-010
  -4.4000000000000011E-003     3.1640512689457483E-010
  -3.5499999999999976E-003     4.7567171398730000E-010
  -2.7000000000000079E-003     6.2495925613736142E-010
  -1.8500000000000044E-003     7.5893623107691556E-010
  -1.0000000000000009E-003     8.7062051244126686E-010
  -1.4999999999999736E-004     9.4811409563617457E-010
   6.9999999999999230E-004     9.7250051869927290E-010
   1.5499999999999958E-003     9.1838107408852019E-010
   2.3999999999999994E-003     7.5786376607546118E-010
   3.2500000000000029E-003     4.6770207771275700E-010
   4.0999999999999925E-003     3.8051858807641689E-011
   4.9499999999999961E-003    -5.1960840502825624E-010
   5.7999999999999996E-003    -1.1680668151699358E-009
   6.6499999999999893E-003    -1.8454845426002320E-009
   7.5000000000000067E-003    -2.4725751974871583E-009
   8.3499999999999963E-003    -2.9645878261810581E-009
   9.1999999999999860E-003    -3.2452167131454206E-009
   1.0050000000000003E-002    -3.2587638142404213E-009
   1.0899999999999993E-002    -2.9772653581662349E-009
   1.1750000000000010E-002    -2.4008505579845509E-009
   1.2600000000000000E-002    -1.5518864246964179E-009
   1.3449999999999990E-002    -4.6572691326740156E-010
   1.4300000000000007E-002     8.1771601677320286E-010
   1.5149999999999997E-002     2.2574402190249771E-009
   1.5999999999999986E-002     3.8074172647045486E-009
   1.6850000000000004E-002     5.4057081265480542E-009
   1.7699999999999994E-002     6.9602574362200876E-009
   1.8549999999999983E-002     8.3373229468624179E-009
   1.9400000000000001E-002     9.3590223918030456E-009
   2.0249999999999990E-002     9.8147687739326136E-009
   2.1100000000000008E-002     9.4877408992812798E-009
   2.1949999999999997E-002     8.1929762209822535E-009
   2.2799999999999987E-002     5.8196159459261117E-009
   2.3650000000000004E-002     2.3676326486480275E-009
   2.4499999999999994E-002    -2.0301264102774474E-009
   2.5349999999999984E-002    -7.1065569458307208E-009
   2.6200000000000001E-002    -1.2480486554950858E-008
   2.7049999999999991E-002    -1.7694063059854693E-008
   2.7900000000000008E-002    -2.2259086452122399E-008
   2.8749999999999998E-002    -2.5702786934270991E-008
   2.9599999999999987E-002    -2.7605349143628124E-008
   3.0450000000000005E-002    -2.7625670454283565E-008
   3.1299999999999994E-002    -2.5516792972483909E-008
   3.2149999999999984E-002    -2.1136401591268083E-008
   3.3000000000000002E-002    -1.4459213969222568E-008
   3.3849999999999991E-002    -5.5961111353162032E-009
   3.4700000000000009E-002     5.1796814586264707E-009
   3.5549999999999998E-002     1.7404894102540669E-008
   3.6399999999999988E-002     3.0407333008085068E-008
   3.7250000000000005E-002     4.3308149873352264E-008
   3.8099999999999995E-002     5.5055502788214999E-008
   3.8949999999999985E-002     6.4494092351542719E-008
   3.9800000000000002E-002     7.0466791708177223E-008
   4.0649999999999992E-002     7.1936416986548952E-008
   4.1500000000000009E-002     6.8110073074583361E-008
   4.2349999999999999E-002     5.8546786834387585E-008
   4.3199999999999988E-002     4.3232291638210814E-008
   4.4050000000000006E-002     2.2611539247300685E-008
   4.4899999999999995E-002    -2.4219389984760857E-009
   4.5749999999999985E-002    -3.0573410200742524E-008
   4.6600000000000003E-002    -6.0220055461081320E-008
   4.7449999999999992E-002    -8.9498319936412993E-008
   4.8299999999999982E-002    -1.1639716447830822E-007
   4.9149999999999999E-002    -1.3885430487046955E-007
   4.9999999999999989E-002    -1.5485732131212499E-007
   5.0850000000000006E-002    -1.6255437035138395E-007
   5.1699999999999996E-002    -1.6037824757616150E-007
   5.2549999999999986E-002    -1.4718311046040873E-007
   5.3400000000000003E-002    -1.2238640911403157E-007
   5.4249999999999993E-002    -8.6101147431062970E-008
   5.5099999999999982E-002    -3.9239462762286182E-008
   5.5950000000000000E-002     1.6433231489151465E-008
   5.6799999999999989E-002     7.8310385992876455E-008
   5.7650000000000007E-002     1.4303220893221576E-007
   5.8499999999999996E-002     2.0664927994736468E-007
   5.9349999999999986E-002     2.6485186874802241E-007
   6.0200000000000004E-002     3.1324671347712870E-007
   6.1049999999999993E-002     3.4765852891601630E-007
   6.1899999999999983E-002     3.6443204069449992E-007
   6.2750000000000000E-002     3.6071233954764811E-007
   6.3599999999999990E-002     3.3468470968018054E-007
   6.4450000000000007E-002     2.8576058619806970E-007
   6.5299999999999997E-002     2.1469950815561774E-007
   6.6149999999999987E-002     1.2366141240433676E-007
   6.7000000000000004E-002     1.6185431783253495E-008
   6.7849999999999994E-002    -1.0290623072532872E-007
   6.8699999999999983E-002    -2.2767944876753604E-007
   6.9550000000000001E-002    -3.5132955096127844E-007
   7.0399999999999990E-002    -4.6648546122185618E-007
   7.1249999999999980E-002    -5.6556393185189519E-007
   7.2099999999999997E-002    -6.4115386129618172E-007
   7.2949999999999987E-002    -6.8640792878041854E-007
   7.3800000000000004E-002    -6.9541111546165331E-007
   7.4649999999999994E-002    -6.6349366004846337E-007
   7.5499999999999984E-002    -5.8746156503850602E-007
   7.6350000000000001E-002    -4.6571586749249826E-007
   7.7199999999999991E-002    -2.9824058033405020E-007
   7.8049999999999981E-002    -8.6452742884785567E-008
   7.8899999999999998E-002     1.6708110806214229E-007
   7.9749999999999988E-002     4.5904840808304763E-007
   8.0600000000000005E-002     7.8589062624906511E-007
   8.1449999999999995E-002     1.1443658591620339E-006
   8.2299999999999984E-002     1.5321457432552518E-006
   8.3150000000000002E-002     1.9484060513242775E-006
   8.3999999999999991E-002     2.3943835370987744E-006
   8.4849999999999981E-002     2.8738699418562680E-006
   8.5699999999999998E-002     3.3936407577541731E-006
   8.6549999999999988E-002     3.9638098715050324E-006
   8.7400000000000005E-002     4.5980991445039672E-006
   8.8249999999999995E-002     5.3140402467263731E-006
   8.9099999999999985E-002     6.1331162600115331E-006
   8.9950000000000002E-002     7.0808428329915219E-006
   9.0799999999999992E-002     8.1868452075731714E-006
   9.1649999999999981E-002     9.4849781522342717E-006
   9.2499999999999999E-002     1.1013469013647336E-005
   9.3349999999999989E-002     1.2815168741486008E-005
   9.4200000000000006E-002     1.4937976514508189E-005
   9.5049999999999996E-002     1.7435433658369781E-005
   9.5899999999999985E-002     2.0367394039293162E-005
   9.6750000000000003E-002     2.3800920153332844E-005
   9.7599999999999992E-002     2.7811347732948666E-005
   9.8449999999999982E-002     3.2483421425599889E-005
   9.9299999999999999E-002     3.7912524479415185E-005
  0.10014999999999999          4.4205927960223346E-005
  0.10099999999999998          5.1484224881569553E-005
  0.10185000000000000          5.9882610963247178E-005
  0.10269999999999999          6.9552341583667440E-005
  0.10355000000000000          8.0662361878259666E-005
  0.10439999999999999          9.3400733350115409E-005
  0.10524999999999998          1.0797635307502189E-004
  0.10610000000000000          1.2462063234662776E-004
  0.10694999999999999          1.4358905363233648E-004
  0.10779999999999998          1.6516273225935810E-004
  0.10865000000000000          1.8965029625013627E-004
  0.10949999999999999          2.1738937650238061E-004
  0.11035000000000000          2.4874800039694579E-004
  0.11119999999999999          2.8412605547736489E-004
  0.11204999999999998          3.2395616056906263E-004
  0.11290000000000000          3.6870498095447539E-004
  0.11374999999999999          4.1887337959536805E-004
  0.11459999999999998          4.7499706869489429E-004
  0.11545000000000000          5.3764662699716330E-004
  0.11629999999999999          6.0742681986866666E-004
  0.11715000000000000          6.8497701218654206E-004
  0.11799999999999999          7.7096857059108341E-004
  0.11884999999999998          8.6610276412594275E-004
  0.11970000000000000          9.7110804332160568E-004
  0.12054999999999999          1.0867372092283273E-003
  0.12139999999999998          1.2137622997648611E-003
  0.12225000000000000          1.3529695688518583E-003
  0.12309999999999999          1.5051536087856456E-003
  0.12395000000000000          1.6711082752779317E-003
  0.12479999999999999          1.8516187584094272E-003
  0.12564999999999998          2.0474523237126799E-003
  0.12650000000000000          2.2593422856660821E-003
  0.12734999999999999          2.4879771082188993E-003
  0.12819999999999998          2.7339867323027947E-003
  0.12905000000000000          2.9979230097631881E-003
  0.12989999999999999          3.2802408506931412E-003
  0.13074999999999998          3.5812789400023692E-003
  0.13159999999999999          3.9012401401331597E-003
  0.13245000000000001          4.2401674098610847E-003
  0.13329999999999997          4.5979231507626700E-003
  0.13414999999999999          4.9741588402002603E-003
  0.13500000000000001          5.3682915019190097E-003
  0.13584999999999997          5.7794827927088932E-003
  0.13669999999999999          6.2066043036097338E-003
  0.13755000000000001          6.6482149940065172E-003
  0.13839999999999997          7.1025427815607145E-003
  0.13924999999999998          7.5674538503978277E-003
  0.14010000000000000          8.0404321544012055E-003
  0.14094999999999996          8.5185666869758928E-003
  0.14179999999999998          8.9985257095765367E-003
  0.14265000000000000          9.4765476221243782E-003
  0.14350000000000002          9.9484309565389204E-003
  0.14434999999999998          1.0409534948350308E-002
  0.14520000000000000          1.0854766578381303E-002
  0.14605000000000001          1.1278578891439692E-002
  0.14689999999999998          1.1674988659963881E-002
  0.14774999999999999          1.2037581042517412E-002
  0.14860000000000001          1.2359538036658613E-002
  0.14944999999999997          1.2633659770684744E-002
  0.15029999999999999          1.2852419756055038E-002
  0.15115000000000001          1.3008007663018720E-002
  0.15199999999999997          1.3092395974060608E-002
  0.15284999999999999          1.3097413812188045E-002
  0.15370000000000000          1.3014826912959684E-002
  0.15454999999999997          1.2836414474081027E-002
  0.15539999999999998          1.2554062729096423E-002
  0.15625000000000000          1.2159861455259022E-002
  0.15709999999999996          1.1646210259312652E-002
  0.15794999999999998          1.1005943099760836E-002
  0.15880000000000000          1.0232412813746006E-002
  0.15965000000000001          9.3196511880846572E-003
  0.16049999999999998          8.2625660725496267E-003
  0.16134999999999999          7.0570021443851962E-003
  0.16220000000000001          5.6998846893227782E-003
  0.16304999999999997          4.1893788602056850E-003
  0.16389999999999999          2.5249914419312978E-003
  0.16475000000000001          7.0770451117589184E-004
  0.16559999999999997         -1.2599496933438309E-003
  0.16644999999999999         -3.3738266368233600E-003
  0.16730000000000000         -5.6280868779588506E-003
  0.16814999999999997         -8.0150803815398700E-003
  0.16899999999999998         -1.0525284551299160E-002
  0.16985000000000000         -1.3147310175442494E-002
  0.17069999999999996         -1.5867813813591560E-002
  0.17154999999999998         -1.8671530204245654E-002
  0.17240000000000000         -2.1541386565042703E-002
  0.17325000000000002         -2.4458517671113938E-002
  0.17409999999999998         -2.7402313015830893E-002
  0.17494999999999999         -3.0350606829461037E-002
  0.17580000000000001         -3.3279805095244745E-002
  0.17664999999999997         -3.6165068121776854E-002
  0.17749999999999999         -3.8980494346524279E-002
  0.17835000000000001         -4.1699345036905443E-002
  0.17919999999999997         -4.4294293138259999E-002
  0.18004999999999999         -4.6737635010023419E-002
  0.18090000000000001         -4.9001667675724322E-002
  0.18174999999999997         -5.1058976204838014E-002
  0.18259999999999998         -5.2882700333209097E-002
  0.18345000000000000         -5.4446866572363403E-002
  0.18429999999999996         -5.5726732795517785E-002
  0.18514999999999998         -5.6699175121588605E-002
  0.18600000000000000         -5.7342945298627164E-002
  0.18684999999999996         -5.7638948012569940E-002
  0.18769999999999998         -5.7570614213818878E-002
  0.18855000000000000         -5.7124197769365538E-002
  0.18940000000000001         -5.6288980759787333E-002
  0.19024999999999997         -5.5057506686697767E-002
  0.19109999999999999         -5.3425826900501822E-002
  0.19195000000000001         -5.1393639876114082E-002
  0.19279999999999997         -4.8964414431118340E-002
  0.19364999999999999         -4.6145480979925040E-002
  0.19450000000000001         -4.2948043601844677E-002
  0.19534999999999997         -3.9387194004318227E-002
  0.19619999999999999         -3.5481868687953291E-002
  0.19705000000000000         -3.1254734573687194E-002
  0.19789999999999996         -2.6732030402750923E-002
  0.19874999999999998         -2.1943358971155083E-002
  0.19960000000000000         -1.6921482705054430E-002
  0.20044999999999996         -1.1701990870323673E-002
  0.20129999999999998         -6.3229888097717409E-003
  0.20215000000000000         -8.2475017175975265E-004
  0.20300000000000001          4.7507115940729362E-003
  0.20384999999999998          1.0360004741151313E-002
  0.20469999999999999          1.5958890136014831E-002
  0.20555000000000001          2.1502679187876871E-002
  0.20639999999999997          2.6946676514512855E-002
  0.20724999999999999          3.2246691984111724E-002
  0.20810000000000001          3.7359570895719924E-002
  0.20894999999999997          4.2243599169443494E-002
  0.20979999999999999          4.6858962485966507E-002
  0.21065000000000000          5.1168269132446202E-002
  0.21149999999999997          5.5136851708801289E-002
  0.21234999999999998          5.8733102351208377E-002
  0.21320000000000000          6.1928797413283741E-002
  0.21404999999999996          6.4699403139923756E-002
  0.21489999999999998          6.7024421978723825E-002
  0.21575000000000000          6.8887505660518156E-002
  0.21659999999999996          7.0276659127633548E-002
  0.21744999999999998          7.1184411414173407E-002
  0.21829999999999999          7.1607805816934225E-002
  0.21915000000000001          7.1548385566568742E-002
  0.21999999999999997          7.1012093317713174E-002
  0.22084999999999999          7.0009200579702682E-002
  0.22170000000000001          6.8554128453363450E-002
  0.22254999999999997          6.6665289556808671E-002
  0.22339999999999999          6.4364772428282216E-002
  0.22425000000000000          6.1678031497288642E-002
  0.22509999999999997          5.8633674282247111E-002
  0.22594999999999998          5.5263065158469224E-002
  0.22680000000000000          5.1599956453939291E-002
  0.22764999999999996          4.7680181100101256E-002
  0.22849999999999998          4.3541270126375362E-002
  0.22935000000000000          3.9221984067363838E-002
  0.23019999999999996          3.4761896378834249E-002
  0.23104999999999998          3.0200990077992200E-002
  0.23190000000000000          2.5579189010493338E-002
  0.23275000000000001          2.0936014633944924E-002
  0.23359999999999997          1.6310183095378780E-002
  0.23444999999999999          1.1739192739955336E-002
  0.23530000000000001          7.2591341163808654E-003
  0.23614999999999997          2.9043356867933827E-003
  0.23699999999999999         -1.2928996834344854E-003
  0.23785000000000001         -5.3024906342923651E-003
  0.23869999999999997         -9.0967966801340765E-003
  0.23954999999999999         -1.2650856307324803E-002
  0.24040000000000000         -1.5942570723358258E-002
  0.24124999999999996         -1.8952762888941932E-002
  0.24209999999999998         -2.1665310879156834E-002
  0.24295000000000000         -2.4067239775765251E-002
  0.24379999999999996         -2.6148695512532502E-002
  0.24464999999999998         -2.7902908311935634E-002
  0.24550000000000000         -2.9326120174591915E-002
  0.24634999999999996         -3.0417493458413540E-002
  0.24719999999999998         -3.1179008230444272E-002
  0.24804999999999999         -3.1615377958723080E-002
  0.24890000000000001         -3.1733907120670278E-002
  0.24974999999999997         -3.1544383383825939E-002
  0.25059999999999999         -3.1058902809281922E-002
  0.25145000000000001         -3.0291769482442030E-002
  0.25229999999999997         -2.9259280992145052E-002
  0.25314999999999999         -2.7979517621694407E-002
  0.25400000000000000         -2.6472135103407575E-002
  0.25484999999999997         -2.4758195769126433E-002
  0.25569999999999998         -2.2859891468950830E-002
  0.25655000000000000         -2.0800295424215923E-002
  0.25739999999999996         -1.8603208931957368E-002
  0.25824999999999998         -1.6292947276725790E-002
  0.25910000000000000         -1.3894136155103808E-002
  0.25994999999999996         -1.1431597448146038E-002
  0.26079999999999998         -8.9301818077519666E-003
  0.26164999999999999         -6.4145740166736531E-003
  0.26249999999999996         -3.9091067027740957E-003
  0.26334999999999997         -1.4375698888309321E-003
  0.26419999999999999          9.7703238299718222E-004
  0.26505000000000001          3.3126786127864790E-003
  0.26589999999999997          5.5484259775680665E-003
  0.26674999999999999          7.6646135924968214E-003
  0.26760000000000000          9.6429850335315818E-003
  0.26844999999999997          1.1466706032789356E-002
  0.26929999999999998          1.3120494238798127E-002
  0.27015000000000000          1.4590710485447363E-002
  0.27099999999999996          1.5865441716031249E-002
  0.27184999999999998          1.6934587236582293E-002
  0.27270000000000000          1.7789929034161590E-002
  0.27354999999999996          1.8425243425815686E-002
  0.27439999999999998          1.8836358577640912E-002
  0.27524999999999999          1.9021168651104519E-002
  0.27609999999999996          1.8979659796266962E-002
  0.27694999999999997          1.8713859302929466E-002
  0.27779999999999999          1.8227775313583734E-002
  0.27865000000000001          1.7527364294611263E-002
  0.27949999999999997          1.6620463644936908E-002
  0.28034999999999999          1.5516715573751443E-002
  0.28120000000000001          1.4227479351022972E-002
  0.28204999999999997          1.2765747655671721E-002
  0.28289999999999998          1.1146020228830532E-002
  0.28375000000000000          9.3841912763256360E-003
  0.28459999999999996          7.4973851653443897E-003
  0.28544999999999998          5.5037781675019281E-003
  0.28630000000000000          3.4224329000474901E-003
  0.28714999999999996          1.2730653608786946E-003
  0.28799999999999998         -9.2415861695612628E-004
  0.28885000000000000         -3.1487904948822266E-003
  0.28969999999999996         -5.3803106438610367E-003
  0.29054999999999997         -7.5983270028554895E-003
  0.29139999999999999         -9.7827386170246007E-003
  0.29224999999999995         -1.1913942848883165E-002
  0.29309999999999997         -1.3973023842453291E-002
  0.29394999999999999         -1.5941915763459061E-002
  0.29480000000000001         -1.7803631126656835E-002
  0.29564999999999997         -1.9542408290387552E-002
  0.29649999999999999         -2.1143869315156907E-002
  0.29735000000000000         -2.2595171431513825E-002
  0.29819999999999997         -2.3885060264255076E-002
  0.29904999999999998         -2.5003989861671756E-002
  0.29990000000000000         -2.5944171299903441E-002
  0.30074999999999996         -2.6699657153251292E-002
  0.30159999999999998         -2.7266339289955834E-002
  0.30245000000000000         -2.7641953015730785E-002
  0.30329999999999996         -2.7826073733551202E-002
  0.30414999999999998         -2.7820096890487259E-002
  0.30499999999999999         -2.7627239458043084E-002
  0.30584999999999996         -2.7252403587724041E-002
  0.30669999999999997         -2.6702120218406022E-002
  0.30754999999999999         -2.5984434857223904E-002
  0.30840000000000001         -2.5108720957810818E-002
  0.30924999999999997         -2.4085610044450371E-002
  0.31009999999999999         -2.2926835810143563E-002
  0.31095000000000000         -2.1645072616798041E-002
  0.31179999999999997         -2.0253795463397145E-002
  0.31264999999999998         -1.8767131410680125E-002
  0.31350000000000000         -1.7199671317823104E-002
  0.31434999999999996         -1.5566232705858270E-002
  0.31519999999999998         -1.3881766493224694E-002
  0.31605000000000000         -1.2161154648584955E-002
  0.31689999999999996         -1.0419085437038530E-002
  0.31774999999999998         -8.6699228061395978E-003
  0.31859999999999999         -6.9275415908162871E-003
  0.31944999999999996         -5.2052883393142553E-003
  0.32029999999999997         -3.5158102502155426E-003
  0.32114999999999999         -1.8709144917773443E-003
  0.32199999999999995         -2.8149015636354442E-004
  0.32284999999999997          1.2425777243047745E-003
  0.32369999999999999          2.6924786815737257E-003
  0.32455000000000001          4.0605178019251743E-003
  0.32539999999999997          5.3401057775517560E-003
  0.32624999999999998          6.5257520921010396E-003
  0.32710000000000000          7.6130676644461451E-003
  0.32794999999999996          8.5987325128369999E-003
  0.32879999999999998          9.4804786412889617E-003
  0.32965000000000000          1.0257097273894209E-002
  0.33049999999999996          1.0928406196943316E-002
  0.33134999999999998          1.1495223468064562E-002
  0.33220000000000000          1.1959311727556828E-002
  0.33304999999999996          1.2323278025832609E-002
  0.33389999999999997          1.2590499258266550E-002
  0.33474999999999999          1.2765000676275565E-002
  0.33559999999999995          1.2851325847886206E-002
  0.33644999999999997          1.2854460626742992E-002
  0.33729999999999999          1.2779757055753181E-002
  0.33815000000000001          1.2632875309693091E-002
  0.33899999999999997          1.2419729741382583E-002
  0.33984999999999999          1.2146448293523217E-002
  0.34070000000000000          1.1819315126468189E-002
  0.34154999999999996          1.1444690450847238E-002
  0.34239999999999998          1.1028927490458902E-002
  0.34325000000000000          1.0578263367069738E-002