 -0.12000000000000000          0.0000000000000000
 -0.11914999999999999          0.0000000000000000
 -0.11830000000000000          0.0000000000000000
 -0.11745000000000000          0.0000000000000000
 -0.11660000000000000          0.0000000000000000
 -0.11574999999999999         -1.6046573733558022E-018
 -0.11490000000000000         -6.1202130302432621E-018
 -0.11405000000000000          1.6003784666817698E-017
 -0.11320000000000000          2.1191633831202637E-016
 -0.11234999999999999          9.4304437220602234E-016
 -0.11150000000000000          2.6877188090324527E-015
 -0.11065000000000000          5.4384091879015189E-015
 -0.10979999999999999          7.4809022779704661E-015
 -0.10894999999999999          4.1118656359728409E-015
 -0.10810000000000000         -1.2244755322116989E-014
 -0.10725000000000000         -4.8681146087378357E-014
 -0.10639999999999999         -1.0444975349408715E-013
 -0.10554999999999999         -1.6171674800764869E-013
 -0.10470000000000000         -1.8010530303079233E-013
 -0.10385000000000000         -1.0246850913020754E-013
 -0.10299999999999999          1.2344142214709786E-013
 -0.10214999999999999          5.1079935952792495E-013
 -0.10130000000000000          1.0007671059153632E-012
 -0.10045000000000000          1.4507136030097993E-012
  -9.9599999999999994E-002     1.6589098438798265E-012
  -9.8750000000000004E-002     1.4239289074255088E-012
  -9.7900000000000001E-002     6.1459244520835790E-013
  -9.7049999999999997E-002    -7.8669142145933918E-013
  -9.6199999999999994E-002    -2.6933351423932733E-012
  -9.5349999999999990E-002    -4.9654360748879239E-012
  -9.4500000000000001E-002    -7.4449575218955108E-012
  -9.3649999999999997E-002    -9.8993552417205623E-012
  -9.2799999999999994E-002    -1.1840098505011367E-011
  -9.1950000000000004E-002    -1.2290576085704439E-011
  -9.1100000000000000E-002    -9.7052812463740242E-012
  -9.0249999999999997E-002    -2.2962811485958466E-012
  -8.9399999999999993E-002     1.1092042184408993E-011
  -8.8549999999999990E-002     2.9732339805767404E-011
  -8.7700000000000000E-002     4.9973156172897184E-011
  -8.6849999999999997E-002     6.5270423387713502E-011
  -8.5999999999999993E-002     6.8011743016903795E-011
  -8.5150000000000003E-002     5.3117939175912416E-011
  -8.4300000000000000E-002     2.2207913229665547E-011
  -8.3449999999999996E-002    -1.4037687762434620E-011
  -8.2600000000000007E-002    -3.7994608087948803E-011
  -8.1749999999999989E-002    -3.3148965600568849E-011
  -8.0900000000000000E-002     3.3633218097485886E-012
  -8.0049999999999996E-002     4.8952018764648858E-011
  -7.9199999999999993E-002     5.2540152665484876E-011
  -7.8350000000000003E-002    -5.2024416255787944E-011
  -7.7499999999999999E-002    -3.1358558153983482E-010
  -7.6649999999999996E-002    -7.1939993377384364E-010
  -7.5800000000000006E-002    -1.1571034626403193E-009
  -7.4949999999999989E-002    -1.4082245904247753E-009
  -7.4099999999999999E-002    -1.1958262249569875E-009
  -7.3249999999999996E-002    -2.9263511747353436E-010
  -7.2399999999999992E-002     1.3320618102282161E-009
  -7.1550000000000002E-002     3.3798297495824018E-009
  -7.0699999999999999E-002     5.1782745497744965E-009
  -6.9849999999999995E-002     5.7917041535332530E-009
  -6.9000000000000006E-002     4.3138229124339254E-009
  -6.8149999999999988E-002     2.9630328855668747E-010
  -6.7299999999999999E-002    -5.8167258453408270E-009
  -6.6449999999999995E-002    -1.2439569810183666E-008
  -6.5599999999999992E-002    -1.6973989481265608E-008
  -6.4750000000000002E-002    -1.6426930595080644E-008
  -6.3899999999999998E-002    -8.4647496801666951E-009
  -6.3049999999999995E-002     7.3509516025568221E-009
  -6.2199999999999998E-002     2.8572377737801111E-008
  -6.1350000000000002E-002     4.9603580336571497E-008
  -6.0499999999999998E-002     6.2534258463919845E-008
  -5.9650000000000002E-002     5.9134178627133780E-008
  -5.8799999999999998E-002     3.3651081972343217E-008
  -5.7950000000000002E-002    -1.4355853743761151E-008
  -5.7099999999999998E-002    -7.8151506662132992E-008
  -5.6249999999999994E-002    -1.4385704185104214E-007
  -5.5400000000000005E-002    -1.9286468395822957E-007
  -5.4550000000000001E-002    -2.0639355921988682E-007
  -5.3699999999999998E-002    -1.7113622044419295E-007
  -5.2849999999999994E-002    -8.4343923152132414E-008
  -5.2000000000000005E-002     4.3432191230588606E-008
  -5.1150000000000001E-002     1.8923925345948129E-007
  -5.0299999999999997E-002     3.2252055356883292E-007
  -4.9449999999999994E-002     4.1276875998750178E-007
  -4.8600000000000004E-002     4.3786275909445172E-007
  -4.7750000000000001E-002     3.9040392273123829E-007
  -4.6899999999999997E-002     2.7977309242154391E-007
  -4.6049999999999994E-002     1.2891131155549696E-007
  -4.5200000000000004E-002    -3.3346901478420963E-008
  -4.4350000000000001E-002    -1.8183841201512240E-007
  -4.3499999999999997E-002    -3.0303101065857663E-007
  -4.2649999999999993E-002    -3.9816473494560935E-007
  -4.1800000000000004E-002    -4.7995943587072063E-007
  -4.0950000000000000E-002    -5.6370908209530869E-007
  -4.0099999999999997E-002    -6.5601243213315585E-007
  -3.9249999999999993E-002    -7.4582055552059740E-007
  -3.8400000000000004E-002    -8.0220399298018653E-007
  -3.7550000000000000E-002    -7.8110665564715056E-007
  -3.6699999999999997E-002    -6.3995308549551573E-007
  -3.5850000000000007E-002    -3.5550339247287673E-007
  -3.5000000000000003E-002     6.1785960363274864E-008
  -3.4150000000000000E-002     5.6336875262530716E-007
  -3.3299999999999996E-002     1.0717004083289724E-006
  -3.2450000000000007E-002     1.5014707327315689E-006
  -3.1600000000000003E-002     1.7865235304576345E-006
  -3.0750000000000000E-002     1.9026585070810936E-006
  -2.9899999999999996E-002     1.8765942166793614E-006
  -2.9050000000000006E-002     1.7753024207786135E-006
  -2.8200000000000003E-002     1.6768868730839250E-006
  -2.7349999999999999E-002     1.6317301425157480E-006
  -2.6499999999999996E-002     1.6280094228763803E-006
  -2.5650000000000006E-002     1.5764264705030727E-006
  -2.4800000000000003E-002     1.3239742374625162E-006
  -2.3949999999999999E-002     6.9716838319520123E-007
  -2.3099999999999996E-002    -4.3601590267795746E-007
  -2.2250000000000006E-002    -2.1048317804251384E-006
  -2.1400000000000002E-002    -4.1970056144489123E-006
  -2.0549999999999999E-002    -6.4592381549073655E-006
  -1.9699999999999995E-002    -8.5416147564468965E-006
  -1.8850000000000006E-002    -1.0075348914032921E-005
  -1.8000000000000002E-002    -1.0760395972638104E-005
  -1.7149999999999999E-002    -1.0433970648332814E-005
  -1.6299999999999995E-002    -9.0955563144678183E-006
  -1.5450000000000005E-002    -6.8785661278217085E-006
  -1.4600000000000002E-002    -3.9782389063170713E-006
  -1.3749999999999998E-002    -5.6327067150663601E-007
  -1.2899999999999995E-002     3.2921195040949975E-006
  -1.2050000000000005E-002     7.6230238643537945E-006
  -1.1200000000000002E-002     1.2520279513716714E-005
  -1.0349999999999998E-002     1.8018662443293209E-005
  -9.5000000000000084E-003     2.3962276789762238E-005
  -8.6500000000000049E-003     2.9897441482911496E-005
  -7.8000000000000014E-003     3.5042295951255792E-005
  -6.9499999999999978E-003     3.8362300325554352E-005
  -6.1000000000000082E-003     3.8748111464073617E-005
  -5.2500000000000047E-003     3.5256785459485643E-005
  -4.4000000000000011E-003     2.7352549189740293E-005
  -3.5499999999999976E-003     1.5075973202541463E-005
  -2.7000000000000079E-003    -9.1218561965481995E-007
  -1.8500000000000044E-003    -1.9427968506044754E-005
  -1.0000000000000009E-003    -3.8976976271196894E-005
  -1.4999999999999736E-004    -5.8017368690253915E-005
   6.9999999999999230E-004    -7.5193766493703289E-005
   1.5499999999999958E-003    -8.9474852792939500E-005
   2.3999999999999994E-003    -1.0015571255451648E-004
   3.2500000000000029E-003    -1.0674676095347774E-004
   4.0999999999999925E-003    -1.0879842947104106E-004
   4.9499999999999961E-003    -1.0575295815726517E-004
   5.7999999999999996E-003    -9.6891011585523479E-005
   6.6499999999999893E-003    -8.1415362139063412E-005
   7.5000000000000067E-003    -5.8659072634547955E-005
   8.3499999999999963E-003    -2.8353278677907490E-005
   9.1999999999999860E-003     9.1559543636096611E-006
   1.0050000000000003E-002     5.2811678247309830E-005
   1.0899999999999993E-002     1.0094834229226705E-004
   1.1750000000000010E-002     1.5159460916602173E-004
   1.2600000000000000E-002     2.0287281207394684E-004
   1.3449999999999990E-002     2.5342747161583609E-004
   1.4300000000000007E-002     3.0272127822591869E-004
   1.5149999999999997E-002     3.5112091693965416E-004
   1.5999999999999986E-002     3.9977695948629561E-004
   1.6850000000000004E-002     4.5031518831951711E-004
   1.7699999999999994E-002     5.0446249916390423E-004
   1.8549999999999983E-002     5.6380216604020250E-004
   1.9400000000000001E-002     6.2963990638524624E-004
   2.0249999999999990E-002     7.0321785502070681E-004
   2.1100000000000008E-002     7.8609901756069688E-004
   2.1949999999999997E-002     8.8060216517477172E-004
   2.2799999999999987E-002     9.9029747319512394E-004
   2.3650000000000004E-002     1.1202077238037791E-003
   2.4499999999999994E-002     1.2768499518493943E-003
   2.5349999999999984E-002     1.4679140038772738E-003
   2.6200000000000001E-002     1.7018762850229900E-003
   2.7049999999999991E-002     1.9875464656403828E-003
   2.7900000000000008E-002     2.3337868524376392E-003
   2.8749999999999998E-002     2.7494738464409760E-003
   2.9599999999999987E-002     3.2437573374542727E-003
   3.0450000000000005E-002     3.8263407235714008E-003
   3.1299999999999994E-002     4.5081834191401703E-003
   3.2149999999999984E-002     5.3017599207499369E-003
   3.3000000000000002E-002     6.2212724844984977E-003
   3.3849999999999991E-002     7.2826032075111406E-003
   3.4700000000000009E-002     8.5031081370448552E-003
   3.5549999999999998E-002     9.9013412788341963E-003
   3.6399999999999988E-002     1.1496590792368150E-002
   3.7250000000000005E-002     1.3309522615118283E-002
   3.8099999999999995E-002     1.5362079363580720E-002
   3.8949999999999985E-002     1.7678009109270160E-002
   3.9800000000000002E-002     2.0284187317449548E-002
   4.0649999999999992E-002     2.3210964422279323E-002
   4.1500000000000009E-002     2.6492847575438100E-002
   4.2349999999999999E-002     3.0168358555525746E-002
   4.3199999999999988E-002     3.4279933838948597E-002
   4.4050000000000006E-002     3.8873816811086516E-002
   4.4899999999999995E-002     4.3998881103593186E-002
   4.5749999999999985E-002     4.9705871666662092E-002
   4.6600000000000003E-002     5.6046911614638373E-002
   4.7449999999999992E-002     6.3074477839065224E-002
   4.8299999999999982E-002     7.0841224504943928E-002
   4.9149999999999999E-002     7.9399502137849159E-002
   4.9999999999999989E-002     8.8801501854561399E-002
   5.0850000000000006E-002     9.9097071517752058E-002
   5.1699999999999996E-002    0.11033366676877471
   5.2549999999999986E-002    0.12255530439432225
   5.3400000000000003E-002    0.13580148699409189
   5.4249999999999993E-002    0.15010707339675217
   5.5099999999999982E-002    0.16549985190424799
   5.5950000000000000E-002    0.18199996683635400
   5.6799999999999989E-002    0.19962081949964466
   5.7650000000000007E-002    0.21836546048690370
   5.8499999999999996E-002    0.23822783041633663
   5.9349999999999986E-002    0.25918686817449738
   6.0200000000000004E-002    0.28120955724319746
   6.1049999999999993E-002    0.30424407988449426
   6.1899999999999983E-002    0.32821875049112781
   6.2750000000000000E-002    0.35303968590584356
   6.3599999999999990E-002    0.37858533110174108
   6.4450000000000007E-002    0.40470695638976478
   6.5299999999999997E-002    0.43123173084646499
   6.6149999999999987E-002    0.45794549743376123
   6.7000000000000004E-002    0.48460991075658377
   6.7849999999999994E-002    0.51095072566508393
   6.8699999999999983E-002    0.53665563911251868
   6.9550000000000001E-002    0.56138006452081302
   7.0399999999999990E-002    0.58473365420030010
   7.1249999999999980E-002    0.60629427845673711
   7.2099999999999997E-002    0.62561000320309368
   7.2949999999999987E-002    0.64218370423485072
   7.3800000000000004E-002    0.65549365507234281
   7.4649999999999994E-002    0.66498696021695480
   7.5499999999999984E-002    0.67009669413727857
   7.6350000000000001E-002    0.67021362466550638
   7.7199999999999991E-002    0.66473276351716715
   7.8049999999999981E-002    0.65304163704226914
   7.8899999999999998E-002    0.63452370216399501
   7.9749999999999988E-002    0.60854754383383702
   8.0600000000000005E-002    0.57453019480657397
   8.1449999999999995E-002    0.53187179495925041
   8.2299999999999984E-002    0.48002918462610622
   8.3150000000000002E-002    0.41849331517167376
   8.3999999999999991E-002    0.34679489358445847
   8.4849999999999981E-002    0.26454452334858253
   8.5699999999999998E-002    0.17142848664016705
   8.6549999999999988E-002     6.7199928941391263E-002
   8.7400000000000005E-002    -4.8263450941674987E-002
   8.8249999999999995E-002   -0.17496192650484532
   8.9099999999999985E-002   -0.31280220686584387
   8.9950000000000002E-002   -0.46154040522730100
   9.0799999999999992E-002   -0.62079168400923157
   9.1649999999999981E-002   -0.79000055600064645
   9.2499999999999999E-002   -0.96846394190293306
   9.3349999999999989E-002    -1.1553284190507374
   9.4200000000000006E-002    -1.3495159144139433
   9.5049999999999996E-002    -1.5498072825782196
   9.5899999999999985E-002    -1.7547959305759577
   9.6750000000000003E-002    -1.9629237044290375
   9.7599999999999992E-002    -2.1724105240040421
   9.8449999999999982E-002    -2.3813980219151434
   9.9299999999999999E-002    -2.5878505086159218
  0.10014999999999999         -2.7895381939027315
  0.10099999999999998         -2.9842057849143826
  0.10185000000000000         -3.1694252660212721
  0.10269999999999999         -3.3427481182592413
  0.10355000000000000         -3.5016497842719718
  0.10439999999999999         -3.6435551066139724
  0.10524999999999998         -3.7659410447433195
  0.10610000000000000         -3.8663296461689636
  0.10694999999999999         -3.9422480009782639
  0.10779999999999998         -3.9914203079965422
  0.10865000000000000         -4.0117199383034299
  0.10949999999999999         -4.0011329334660930
  0.11035000000000000         -3.9579288857790536
  0.11119999999999999         -3.8805520533448807
  0.11204999999999998         -3.7677626654248466
  0.11290000000000000         -3.6186442984705218
  0.11374999999999999         -3.4325809555344571
  0.11459999999999998         -3.2093477042751006
  0.11545000000000000         -2.9491576261691659
  0.11629999999999999         -2.6525698873515897
  0.11715000000000000         -2.3205978063565902
  0.11799999999999999         -1.9547311746698239
  0.11884999999999998         -1.5567909117163774
  0.11970000000000000         -1.1290844988001343
  0.12054999999999999        -0.67434977317272815
  0.12139999999999998        -0.19571247660278801
  0.12225000000000000         0.30330910389509580
  0.12309999999999999         0.81885298428563669
  0.12395000000000000          1.3467561074016001
  0.12479999999999999          1.8825321078586874
  0.12564999999999998          2.4215106513950166
  0.12650000000000000          2.9587370470598255
  0.12734999999999999          3.4892328038863027
  0.12819999999999998          4.0078418064344117
  0.12905000000000000          4.5094098310996635
  0.12989999999999999          4.9888871130645542
  0.13074999999999998          5.4412448574523733
  0.13159999999999999          5.8616761190853044
  0.13245000000000001          6.2455680314561945
  0.13329999999999997          6.5886332993774985
  0.13414999999999999          6.8868873173122918
  0.13500000000000001          7.1368300199272507
  0.13584999999999997          7.3353009589222564
  0.13669999999999999          7.4797010811436593
  0.13755000000000001          7.5678893971330110
  0.13839999999999997          7.5983622014033143
  0.13924999999999998          7.5702042154300644
  0.14010000000000000          7.4830655812219780
  0.14094999999999996          7.3371919939821693
  0.14179999999999998          7.1334859555623344
  0.14265000000000000          6.8734997905803139
  0.14350000000000002          6.5593419042314416
  0.14434999999999998          6.1937421671437605
  0.14520000000000000          5.7799445875902631
  0.14605000000000001          5.3217440427644940
  0.14689999999999998          4.8233104776581603
  0.14774999999999999          4.2893049963134411
  0.14860000000000001          3.7247163588427137
  0.14944999999999997          3.1347775783438103
  0.15029999999999999          2.5249949398461577
  0.15115000000000001          1.9010734959444646
  0.15199999999999997          1.2688228408854396
  0.15284999999999999         0.63400785605135723
  0.15370000000000000          2.4219780393688051E-003
  0.15454999999999997        -0.62024240501712402
  0.15539999999999998         -1.2284954841206903
  0.15625000000000000         -1.8170435825144033
  0.15709999999999996         -2.3809772628344072
  0.15794999999999998         -2.9156848411500706
  0.15880000000000000         -3.4169555984628088
  0.15965000000000001         -3.8809616617476927
  0.16049999999999998         -4.3044292698634026
  0.16134999999999999         -4.6844737072832441
  0.16220000000000001         -5.0188409749914715
  0.16304999999999997         -5.3056164667092212
  0.16389999999999999         -5.5436517548411128
  0.16475000000000001         -5.7321896802608432
  0.16559999999999997         -5.8711537845910913
  0.16644999999999999         -5.9608166476500362
  0.16730000000000000         -6.0020395478947917
  0.16814999999999997         -5.9961896883193937
  0.16899999999999998         -5.9450469354256512
  0.16985000000000000         -5.8507514332986652
  0.17069999999999996         -5.7157953592582373
  0.17154999999999998         -5.5430414425486303
  0.17240000000000000         -5.3355533441404983
  0.17325000000000002         -5.0967162647319819
  0.17409999999999998         -4.8300010089290408
  0.17494999999999999         -4.5390802336584084
  0.17580000000000001         -4.2276777176473690
  0.17664999999999997         -3.8995880594839152
  0.17749999999999999         -3.5585391215670548
  0.17835000000000001         -3.2082078377154719
  0.17919999999999997         -2.8522522855094645
  0.18004999999999999         -2.4941175284206620
  0.18090000000000001         -2.1371390754094493
  0.18174999999999997         -1.7843687333514688
  0.18259999999999998         -1.4387132074016513
  0.18345000000000000         -1.1028374581243241
  0.18429999999999996        -0.77913379402060745
  0.18514999999999998        -0.46974435112201313
  0.18600000000000000        -0.17653527962425605
  0.18684999999999996          9.8917046293342997E-002
  0.18769999999999998         0.35530312537644160
  0.18855000000000000         0.59163117710177771
  0.18940000000000001         0.80715846704425054
  0.19024999999999997          1.0014127667246813
  0.19109999999999999          1.1741924798812784
  0.19195000000000001          1.3255501227843831
  0.19279999999999997          1.4556963744971518
  0.19364999999999999          1.5650849788839445
  0.19450000000000001          1.6543381901744416
  0.19534999999999997          1.7241908473008818
  0.19619999999999999          1.7755381062854008
  0.19705000000000000          1.8094041727893564
  0.19789999999999996          1.8268674848443907
  0.19874999999999998          1.8291367995298426
  0.19960000000000000          1.8174562572450292
  0.20044999999999996          1.7931393006831864
  0.20129999999999998          1.7575046489796124
  0.20215000000000000          1.7118845268377674
  0.20300000000000001          1.6575926466299404
  0.20384999999999998          1.5958993277062248
  0.20469999999999999          1.5280312486287093
  0.20555000000000001          1.4551738074941258
  0.20639999999999997          1.3784247985801510
  0.20724999999999999          1.2988419687445507
  0.20810000000000001          1.2173912016208712
  0.20894999999999997          1.1349644220296551
  0.20979999999999999          1.0524062146687083
  0.21065000000000000         0.97045487661897101
  0.21149999999999997         0.88978855513606658
  0.21234999999999998         0.81099942047989648
  0.21320000000000000         0.73457663537056028
  0.21404999999999996         0.66094892318175202
  0.21489999999999998         0.59045085904501071
  0.21575000000000000         0.52335137414077848
  0.21659999999999996         0.45982685790895145
  0.21744999999999998         0.40003407453397116
  0.21829999999999999         0.34404048343930121
  0.21915000000000001         0.29189054936888886
  0.21999999999999997         0.24361583721485275
  0.22084999999999999         0.19917508258592956
  0.22170000000000001         0.15853979866878942
  0.22254999999999997         0.12162871349599642
  0.22339999999999999          8.8330940668045754E-002
  0.22425000000000000          5.8498892932621283E-002
  0.22509999999999997          3.1972035991206425E-002
  0.22594999999999998          8.5407382587751549E-003
  0.22680000000000000         -1.2013213184876661E-002
  0.22764999999999996         -2.9914779401561221E-002
  0.22849999999999998         -4.5380326991945510E-002
  0.22935000000000000         -5.8613773786825127E-002
  0.23019999999999996         -6.9790775615649031E-002
  0.23104999999999998         -7.9090271918615659E-002
  0.23190000000000000         -8.6668698347362225E-002
  0.23275000000000001         -9.2684771336102326E-002
  0.23359999999999997         -9.7281767770095062E-002
  0.23444999999999999        -0.10061385623132228
  0.23530000000000001        -0.10283691208445819
  0.23614999999999997        -0.10409198053522054
  0.23699999999999999        -0.10453914851125148
  0.23785000000000001        -0.10432273561202783
  0.23869999999999997        -0.10356139613055218
  0.23954999999999999        -0.10236839234902287
  0.24040000000000000        -0.10083164671160147
  0.24124999999999996         -9.9008491414917035E-002
  0.24209999999999998         -9.6942794541904770E-002
  0.24295000000000000         -9.4671976415354492E-002
  0.24379999999999996         -9.2228524139031695E-002
  0.24464999999999998         -8.9642600807844891E-002
  0.24550000000000000         -8.6960332541083638E-002
  0.24634999999999996         -8.4229141175450578E-002
  0.24719999999999998         -8.1506894169089392E-002
  0.24804999999999999         -7.8845301315460498E-002
  0.24890000000000001         -7.6292293221716295E-002
  0.24974999999999997         -7.3871286270045425E-002
  0.25059999999999999         -7.1598132351068253E-002
  0.25145000000000001         -6.9460872692081621E-002
  0.25229999999999997         -6.7448942394086275E-002
  0.25314999999999999         -6.5539632863211100E-002
  0.25400000000000000         -6.3728366989969781E-002
  0.25484999999999997         -6.2019541344463858E-002
  0.25569999999999998         -6.0443674412824257E-002
  0.25655000000000000         -5.9040090037880098E-002
  0.25739999999999996         -5.7858850219630241E-002
  0.25824999999999998         -5.6953809459278235E-002
  0.25910000000000000         -5.6362731478188093E-002
  0.25994999999999996         -5.6115924565386541E-002
  0.26079999999999998         -5.6223520386609167E-002
  0.26164999999999999         -5.6688028228184126E-002
  0.26249999999999996         -5.7510687259251715E-002
  0.26334999999999997         -5.8697719291948919E-002
  0.26419999999999999         -6.0266030856956754E-002
  0.26505000000000001         -6.2246137707372723E-002
  0.26589999999999997         -6.4682376264401556E-002
  0.26674999999999999         -6.7617726202151590E-002
  0.26760000000000000         -7.1093759514012159E-002
  0.26844999999999997         -7.5136792671891203E-002
  0.26929999999999998         -7.9754174533252384E-002
  0.27015000000000000         -8.4936804169701660E-002
  0.27099999999999996         -9.0660031756064199E-002
  0.27184999999999998         -9.6885718309541499E-002
  0.27270000000000000        -0.10356813539530470
  0.27354999999999996        -0.11066636034532849
  0.27439999999999998        -0.11813313148437937
  0.27524999999999999        -0.12591970984057638
  0.27609999999999996        -0.13397707992427754
  0.27694999999999997        -0.14223404466273290
  0.27779999999999999        -0.15061854124066337
  0.27865000000000001        -0.15902569208557957
  0.27949999999999997        -0.16734052935017840
  0.28034999999999999        -0.17542332477732625
  0.28120000000000001        -0.18312368373200560
  0.28204999999999997        -0.19027183780304974
  0.28289999999999998        -0.19669974934012177
  0.28375000000000000        -0.20221990753449323
  0.28459999999999996        -0.20665250941575625
  0.28544999999999998        -0.20981244147338668
  0.28630000000000000        -0.21151991462443004
  0.28714999999999996        -0.21158613399127740
  0.28799999999999998        -0.20981702299249474
  0.28885000000000000        -0.20602147071556012
  0.28969999999999996        -0.20000585408384780
  0.29054999999999997        -0.19156908281421531
  0.29139999999999999        -0.18049990620433098
  0.29224999999999995        -0.16660758752949126
  0.29309999999999997        -0.14970445657551282
  0.29394999999999999        -0.12962521535327942
  0.29480000000000001        -0.10624594852388032
  0.29564999999999997         -7.9448937141744710E-002
  0.29649999999999999         -4.9167613783289946E-002
  0.29735000000000000         -1.5351552250578123E-002
  0.29819999999999997          2.2004187949510270E-002
  0.29904999999999998          6.2873623335693671E-002
  0.29990000000000000         0.10722371494663438
  0.30074999999999996         0.15495704109241867
  0.30159999999999998         0.20593431802639159
  0.30245000000000000         0.25997661450656762
  0.30329999999999996         0.31684618892262051
  0.30414999999999998         0.37625660361784480
  0.30499999999999999         0.43783381727457021
  0.30584999999999996         0.50115620638571168
  0.30669999999999997         0.56575282050762365
  0.30754999999999999         0.63108075169982203
  0.30840000000000001         0.69656464090890802
  0.30924999999999997         0.76158740058631058
  0.31009999999999999         0.82551747804978315
  0.31095000000000000         0.88765974138365045
  0.31179999999999997         0.94728913416407956
  0.31264999999999998          1.0036701892291808
  0.31350000000000000          1.0560047512438118
  0.31434999999999996          1.1034904904235248
  0.31519999999999998          1.1453178573499996
  0.31605000000000000          1.1806374552385253
  0.31689999999999996          1.2086559803372852
  0.31774999999999998          1.2285921314272619
  0.31859999999999999          1.2397662988328084
  0.31944999999999996          1.2415024531849377
  0.32029999999999997          1.2332449480294170
  0.32114999999999999          1.2144756990836760
  0.32199999999999995          1.1847797835921907
  0.32284999999999997          1.1438149647399030
  0.32369999999999999          1.0913313713948001
  0.32455000000000001          1.0271976904594564
  0.32539999999999997         0.95138977874587805
  0.32624999999999998         0.86400480946805969
  0.32710000000000000         0.76527088196120530
  0.32794999999999996         0.65559491397336633
  0.32879999999999998         0.53549036655902693
  0.32965000000000000         0.40564858890732169
  0.33049999999999996         0.26691166069745886
  0.33134999999999998         0.12023146343223470
  0.33220000000000000         -3.3302613991235942E-002
  0.33304999999999996        -0.19251206318639022
  0.33389999999999997        -0.35611648846765681
  0.33474999999999999        -0.52275292762803649
  0.33559999999999995        -0.69098221410256155
  0.33644999999999997        -0.85932042699986833
  0.33729999999999999         -1.0262267874006654
  0.33815000000000001         -1.1900745119707279
  0.33899999999999997         -1.3492519011825648
  0.33984999999999999         -1.5020992140115657
  0.34070000000000000         -1.6469997541292209
  0.34154999999999996         -1.7823890579349668
  0.34239999999999998         -1.9067583434766624
  0.34325000000000000         -2.0187275894102479
  0.34409999999999996         -2.1170185044024827
  0.34494999999999998         -2.2004852768785113
  0.34580000000000000         -2.2681196841863356
  0.34664999999999996         -2.3190500329406203
  0.34749999999999998         -2.3525885734608636
  0.34834999999999999         -2.3682018765624728
  0.34919999999999995         -2.3654916074935053
  0.35004999999999997         -2.3442718784424574
  0.35089999999999999         -2.3045479242603100
  0.35174999999999995         -2.2465356704164043
  0.35259999999999997         -2.1706664866422094
  0.35344999999999999         -2.0775449910053196
  0.35430000000000000         -1.9679746451377662
  0.35514999999999997         -1.8429439955169198
  0.35599999999999998         -1.7036203894056381
  0.35685000000000000         -1.5512766215174589
  0.35769999999999996         -1.3873281941526505
  0.35854999999999998         -1.2132988972723326
  0.35940000000000000         -1.0308028881927791
  0.36024999999999996        -0.84153586020566618
  0.36109999999999998        -0.64723422199887570
  0.36194999999999999        -0.44973027964007606
  0.36279999999999996        -0.25081840540950762
  0.36364999999999997         -5.2310977579232774E-002
  0.36449999999999999         0.14397091790902428
  0.36534999999999995         0.33629547378949048
  0.36619999999999997         0.52296063957557470
  0.36704999999999999         0.70236120494895049