 -0.12000000000000000          0.0000000000000000
 -0.11914999999999999          0.0000000000000000
 -0.11830000000000000          1.7237415404819277E-014
 -0.11745000000000000          1.6301821196477870E-013
 -0.11660000000000000          6.8054585397803020E-013
 -0.11574999999999999          1.7993040236781182E-012
 -0.11490000000000000          3.3785243167821885E-012
 -0.11405000000000000          4.5251042054298007E-012
 -0.11320000000000000          3.5384736554878038E-012
 -0.11234999999999999         -1.4959115075896191E-012
 -0.11150000000000000         -1.1435099724186019E-011
 -0.11065000000000000         -2.4564408346097870E-011
 -0.10979999999999999         -3.5682831342030154E-011
 -0.10894999999999999         -3.6708186019950467E-011
 -0.10810000000000000         -1.9298949393283486E-011
 -0.10725000000000000          2.0883470213231309E-011
 -0.10639999999999999          7.9665592469519241E-011
 -0.10554999999999999          1.4169261734186657E-010
 -0.10470000000000000          1.8161444040442213E-010
 -0.10385000000000000          1.7011585830854003E-010
 -0.10299999999999999          8.3997518195547432E-011
 -0.10214999999999999         -8.2433057246418184E-011
 -0.10130000000000000         -3.0872418707626069E-010
 -0.10045000000000000         -5.4646588740854051E-010
  -9.9599999999999994E-002    -7.2677591311749859E-010
  -9.8750000000000004E-002    -7.7669042033721366E-010
  -9.7900000000000001E-002    -6.4079016866998089E-010
  -9.7049999999999997E-002    -3.0188571819595986E-010
  -9.6199999999999994E-002     2.0610731238897695E-010
  -9.5349999999999990E-002     7.9836516010539279E-010
  -9.4500000000000001E-002     1.3540798949930256E-009
  -9.3649999999999997E-002     1.7432236785153793E-009
  -9.2799999999999994E-002     1.8582932934371517E-009
  -9.1950000000000004E-002     1.6421720975121205E-009
  -9.1100000000000000E-002     1.1040201680907298E-009
  -9.0249999999999997E-002     3.1851038584543688E-010
  -8.9399999999999993E-002    -5.9129216563795990E-010
  -8.8549999999999990E-002    -1.4822101162421142E-009
  -8.7700000000000000E-002    -2.2220172945339079E-009
  -8.6849999999999997E-002    -2.7145187666292327E-009
  -8.5999999999999993E-002    -2.9123525674215947E-009
  -8.5150000000000003E-002    -2.8156264096344607E-009
  -8.4300000000000000E-002    -2.4592414809128077E-009
  -8.3449999999999996E-002    -1.8951558563706024E-009
  -8.2600000000000007E-002    -1.1767211285451435E-009
  -8.1749999999999989E-002    -3.5043213821224889E-010
  -8.0900000000000000E-002     5.4325799570688705E-010
  -8.0049999999999996E-002     1.4624846846875625E-009
  -7.9199999999999993E-002     2.3551734135642033E-009
  -7.8350000000000003E-002     3.1547376080608658E-009
  -7.7499999999999999E-002     3.7841963672429942E-009
  -7.6649999999999996E-002     4.1690116255201626E-009
  -7.5800000000000006E-002     4.2550744458604148E-009
  -7.4949999999999989E-002     4.0257023740745584E-009
  -7.4099999999999999E-002     3.5112525162681336E-009
  -7.3249999999999996E-002     2.7871845277098884E-009
  -7.2399999999999992E-002     1.9603132580999098E-009
  -7.1550000000000002E-002     1.1470609964002486E-009
  -7.0699999999999999E-002     4.5036249132826720E-010
  -6.9849999999999995E-002    -5.7686946576426837E-011
  -6.9000000000000006E-002    -3.4240134074719664E-010
  -6.8149999999999988E-002    -4.0108862351307873E-010
  -6.7299999999999999E-002    -2.4863116277916669E-010
  -6.6449999999999995E-002     9.9914693163196436E-011
  -6.5599999999999992E-002     6.4288928480538607E-010
  -6.4750000000000002E-002     1.3965525993517711E-009
  -6.3899999999999998E-002     2.3889412143930624E-009
  -6.3049999999999995E-002     3.6455649825811280E-009
  -6.2199999999999998E-002     5.1727230202362495E-009
  -6.1350000000000002E-002     6.9454442224494507E-009
  -6.0499999999999998E-002     8.9060115911651875E-009
  -5.9650000000000002E-002     1.0975711209505181E-008
  -5.8799999999999998E-002     1.3078091938650703E-008
  -5.7950000000000002E-002     1.5168239673844763E-008
  -5.7099999999999998E-002     1.7259850485395422E-008
  -5.6249999999999994E-002     1.9441817622910413E-008
  -5.5400000000000005E-002     2.1878262403486136E-008
  -5.4550000000000001E-002     2.4790062426352058E-008
  -5.3699999999999998E-002     2.8420864345713691E-008
  -5.2849999999999994E-002     3.2994842044131483E-008
  -5.2000000000000005E-002     3.8676465169695991E-008
  -5.1150000000000001E-002     4.5542477551093679E-008
  -5.0299999999999997E-002     5.3574634351157881E-008
  -4.9449999999999994E-002     6.2676311012169191E-008
  -4.8600000000000004E-002     7.2710850901273649E-008
  -4.7750000000000001E-002     8.3553552852133089E-008
  -4.6899999999999997E-002     9.5144802610061444E-008
  -4.6049999999999994E-002     1.0753108789773533E-007
  -4.5200000000000004E-002     1.2088241345726679E-007
  -4.4350000000000001E-002     1.3548135559210863E-007
  -4.3499999999999997E-002     1.5168414678285265E-007
  -4.2649999999999993E-002     1.6986437575492722E-007
  -4.1800000000000004E-002     1.9035592276872070E-007
  -4.0950000000000000E-002     2.1341086947026740E-007
  -4.0099999999999997E-002     2.3918730698571319E-007
  -3.9249999999999993E-002     2.6777278852709746E-007
  -3.8400000000000004E-002     2.9924055612797273E-007
  -3.7550000000000000E-002     3.3372362783413790E-007
  -3.6699999999999997E-002     3.7148739768456470E-007
  -3.5850000000000007E-002     4.1298066907748798E-007
  -3.5000000000000003E-002     4.5884930332621295E-007
  -3.4150000000000000E-002     5.0990912293205000E-007
  -3.3299999999999996E-002     5.6708838281653482E-007
  -3.2450000000000007E-002     6.3135700994858173E-007
  -3.1600000000000003E-002     7.0366917874042055E-007
  -3.0750000000000000E-002     7.8493853683374609E-007
  -2.9899999999999996E-002     8.7605850930008769E-007
  -2.9050000000000006E-002     9.7796576112259128E-007
  -2.8200000000000003E-002     1.0917350520853631E-006
  -2.7349999999999999E-002     1.2186816819316132E-006
  -2.6499999999999996E-002     1.3604370049390983E-006
  -2.5650000000000006E-002     1.5189969485722348E-006
  -2.4800000000000003E-002     1.6967217749002363E-006
  -2.3949999999999999E-002     1.8963101469441657E-006
  -2.3099999999999996E-002     2.1207565311961310E-006
  -2.2250000000000006E-002     2.3733169071697808E-006
  -2.1400000000000002E-002     2.6575091744729209E-006
  -2.0549999999999999E-002     2.9771524136703848E-006
  -1.9699999999999995E-002     3.3364370334819223E-006
  -1.8850000000000006E-002     3.7400316583708129E-006
  -1.8000000000000002E-002     4.1931801068019475E-006
  -1.7149999999999999E-002     4.7017942789791568E-006
  -1.6299999999999995E-002     5.2724889361179684E-006
  -1.5450000000000005E-002     5.9126001743580645E-006
  -1.4600000000000002E-002     6.6301836654167216E-006
  -1.3749999999999998E-002     7.4339725028443816E-006
  -1.2899999999999995E-002     8.3333370384071080E-006
  -1.2050000000000005E-002     9.3382984680963119E-006
  -1.1200000000000002E-002     1.0459498773204280E-005
  -1.0349999999999998E-002     1.1708239610345483E-005
  -9.5000000000000084E-003     1.3096527636778568E-005
  -8.6500000000000049E-003     1.4637036731198238E-005
  -7.8000000000000014E-003     1.6343171923330680E-005
  -6.9499999999999978E-003     1.8229030837029139E-005
  -6.1000000000000082E-003     2.0309300580251598E-005
  -5.2500000000000047E-003     2.2599238580418400E-005
  -4.4000000000000011E-003     2.5114465577757046E-005
  -3.5499999999999976E-003     2.7870948939666248E-005
  -2.7000000000000079E-003     3.0884758653664424E-005
  -1.8500000000000044E-003     3.4171969758748369E-005
  -1.0000000000000009E-003     3.7748496959824175E-005
  -1.4999999999999736E-004     4.1629747754206709E-005
   6.9999999999999230E-004     4.5830605050101885E-005
   1.5499999999999958E-003     5.0364969808058635E-005
   2.3999999999999994E-003     5.5245581288301887E-005
   3.2500000000000029E-003     6.0483678825615663E-005
   4.0999999999999925E-003     6.6088652142721858E-005
   4.9499999999999961E-003     7.2067852914008625E-005
   5.7999999999999996E-003     7.8426156431639192E-005
   6.6499999999999893E-003     8.5165625655649497E-005
   7.5000000000000067E-003     9.2285077876416932E-005
   8.3499999999999963E-003     9.9779850399289244E-005
   9.1999999999999860E-003     1.0764115993085694E-004
   1.0050000000000003E-002     1.1585602259310985E-004
   1.0899999999999993E-002     1.2440657179155559E-004
   1.1750000000000010E-002     1.3326961972578402E-004
   1.2600000000000000E-002     1.4241669567360344E-004
   1.3449999999999990E-002     1.5181364816974972E-004
   1.4300000000000007E-002     1.6142036756901367E-004
   1.5149999999999997E-002     1.7119039068793387E-004
   1.5999999999999986E-002     1.8107118014944231E-004
   1.6850000000000004E-002     1.9100369710347960E-004
   1.7699999999999994E-002     2.0092242448825176E-004
   1.8549999999999983E-002     2.1075539085911780E-004
   1.9400000000000001E-002     2.2042386282106679E-004
   2.0249999999999990E-002     2.2984340073017918E-004
   2.1100000000000008E-002     2.3892321564161973E-004
   2.1949999999999997E-002     2.4756733831252342E-004
   2.2799999999999987E-002     2.5567460362182701E-004
   2.3650000000000004E-002     2.6313961584064076E-004
   2.4499999999999994E-002     2.6985354690155569E-004
   2.5349999999999984E-002     2.7570420796688930E-004
   2.6200000000000001E-002     2.8057795548426512E-004
   2.7049999999999991E-002     2.8435970592366661E-004
   2.7900000000000008E-002     2.8693477081853799E-004
   2.8749999999999998E-002     2.8818942996556012E-004
   2.9599999999999987E-002     2.8801262224635880E-004
   3.0450000000000005E-002     2.8629658767748525E-004
   3.1299999999999994E-002     2.8293895436723953E-004
   3.2149999999999984E-002     2.7784314609119627E-004
   3.3000000000000002E-002     2.7092130753236121E-004
   3.3849999999999991E-002     2.6209412398289826E-004
   3.4700000000000009E-002     2.5129291788156635E-004
   3.5549999999999998E-002     2.3846086127272847E-004
   3.6399999999999988E-002     2.2355476243073968E-004
   3.7250000000000005E-002     2.0654602189797863E-004
   3.8099999999999995E-002     1.8742081645921452E-004
   3.8949999999999985E-002     1.6618295821925979E-004
   3.9800000000000002E-002     1.4285284409015740E-004
   4.0649999999999992E-002     1.1746990631931060E-004
   4.1500000000000009E-002     9.0091915167074570E-005
   4.2349999999999999E-002     6.0795917641032649E-005
   4.3199999999999988E-002     2.9678509746874288E-005
   4.4050000000000006E-002    -3.1446697065677943E-006
   4.4899999999999995E-002    -3.7538022605646628E-005
   4.5749999999999985E-002    -7.3347636143063791E-005
   4.6600000000000003E-002    -1.1040118979977951E-004
   4.7449999999999992E-002    -1.4850901184583208E-004
   4.8299999999999982E-002    -1.8746514427576914E-004
   4.9149999999999999E-002    -2.2704894634720932E-004
   4.9999999999999989E-002    -2.6702590735905123E-004
   5.0850000000000006E-002    -3.0715016767713087E-004
   5.1699999999999996E-002    -3.4716636164850817E-004
   5.2549999999999986E-002    -3.8681115715852418E-004
   5.3400000000000003E-002    -4.2581571965012499E-004
   5.4249999999999993E-002    -4.6390800036939122E-004
   5.5099999999999982E-002    -5.0081536046507667E-004
   5.5950000000000000E-002    -5.3626648287823163E-004
   5.6799999999999989E-002    -5.6999448540780097E-004
   5.7650000000000007E-002    -6.0173928061293719E-004
   5.8499999999999996E-002    -6.3125030849790244E-004
   5.9349999999999986E-002    -6.5828908072517237E-004
   6.0200000000000004E-002    -6.8263109885909360E-004
   6.1049999999999993E-002    -7.0406876441998301E-004
   6.1899999999999983E-002    -7.2241360748970327E-004
   6.2750000000000000E-002    -7.3749736139466608E-004
   6.3599999999999990E-002    -7.4917454582245344E-004
   6.4450000000000007E-002    -7.5732387932532052E-004
   6.5299999999999997E-002    -7.6185036067458536E-004
   6.6149999999999987E-002    -7.6268490649166148E-004
   6.7000000000000004E-002    -7.5978623758554914E-004
   6.7849999999999994E-002    -7.5314144582689421E-004
   6.8699999999999983E-002    -7.4276634775487845E-004
   6.9550000000000001E-002    -7.2870479708476705E-004
   7.0399999999999990E-002    -7.1102926173488915E-004
   7.1249999999999980E-002    -6.8983956746559148E-004
   7.2099999999999997E-002    -6.6526207679321427E-004
   7.2949999999999987E-002    -6.3744974096873993E-004
   7.3800000000000004E-002    -6.0657870624452714E-004
   7.4649999999999994E-002    -5.7284861896510718E-004
   7.5499999999999984E-002    -5.3647943894329325E-004
   7.6350000000000001E-002    -4.9770964570319332E-004
   7.7199999999999991E-002    -4.5679489507662128E-004
   7.8049999999999981E-002    -4.1400516403063657E-004
   7.8899999999999998E-002    -3.6962159036038860E-004
   7.9749999999999988E-002    -3.2393450210448348E-004
   8.0600000000000005E-002    -2.7724043023670807E-004
   8.1449999999999995E-002    -2.2983997837015911E-004
   8.2299999999999984E-002    -1.8203415117223825E-004
   8.3150000000000002E-002    -1.3412269717608688E-004
   8.3999999999999991E-002    -8.6400699356587466E-005
   8.4849999999999981E-002    -3.9156622670665804E-005
   8.5699999999999998E-002     7.3301504528298856E-006
   8.6549999999999988E-002     5.2790000823459445E-005
   8.7400000000000005E-002     9.6969163991438619E-005
   8.8249999999999995E-002     1.3962720957279561E-004
   8.9099999999999985E-002     1.8054133786561438E-004
   8.9950000000000002E-002     2.1950753874568776E-004
   9.0799999999999992E-002     2.5634150571806290E-004
   9.1649999999999981E-002     2.9087976814231410E-004
   9.2499999999999999E-002     3.2298113928906516E-004
   9.3349999999999989E-002     3.5252601301300889E-004
   9.4200000000000006E-002     3.7941731634291909E-004
   9.5049999999999996E-002     4.0358064059254690E-004
   9.5899999999999985E-002     4.2496393571826892E-004
   9.6750000000000003E-002     4.4353785427497485E-004
   9.7599999999999992E-002     4.5929462342188113E-004
   9.8449999999999982E-002     4.7224652921566652E-004
   9.9299999999999999E-002     4.8242722003761823E-004
  0.10014999999999999          4.8988880576379744E-004
  0.10099999999999998          4.9470081528093580E-004
  0.10185000000000000          4.9694958141303165E-004
  0.10269999999999999          4.9673621469755629E-004
  0.10355000000000000          4.9417493815106584E-004
  0.10439999999999999          4.8939134974563332E-004
  0.10524999999999998          4.8252203664794747E-004
  0.10610000000000000          4.7371125622801247E-004
  0.10694999999999999          4.6311052237984986E-004
  0.10779999999999998          4.5087674641191465E-004
  0.10865000000000000          4.3717018421017919E-004
  0.10949999999999999          4.2215355395843206E-004
  0.11035000000000000          4.0598993000792445E-004
  0.11119999999999999          3.8884152330090035E-004
  0.11204999999999998          3.7086814506035452E-004
  0.11290000000000000          3.5222648670694268E-004
  0.11374999999999999          3.3306834563203320E-004
  0.11459999999999998          3.1354025836750264E-004
  0.11545000000000000          2.9378223462755445E-004
  0.11629999999999999          2.7392713552913472E-004
  0.11715000000000000          2.5410005350322257E-004
  0.11799999999999999          2.3441755773541379E-004
  0.11884999999999998          2.1498748413242467E-004
  0.11970000000000000          1.9590861323497960E-004
  0.12054999999999999          1.7727008731330219E-004
  0.12139999999999998          1.5915199443385160E-004
  0.12225000000000000          1.4162493593902916E-004
  0.12309999999999999          1.2475009985740321E-004
  0.12395000000000000          1.0857963449264066E-004
  0.12479999999999999          9.3156934534804916E-005
  0.12564999999999998          7.8516393796733088E-005
  0.12650000000000000          6.4684485973046424E-005
  0.12734999999999999          5.1679958608147848E-005
  0.12819999999999998          3.9513859833943472E-005
  0.12905000000000000          2.8190778641864743E-005
  0.12989999999999999          1.7708736079105295E-005
  0.13074999999999998          8.0600774715624589E-006
  0.13159999999999999         -7.6815997799344883E-007
  0.13245000000000001         -8.7935127214085211E-006
  0.13329999999999997         -1.6037841295918082E-005
  0.13414999999999999         -2.2526626623086794E-005
  0.13500000000000001         -2.8288568390235856E-005
  0.13584999999999997         -3.3354858378029049E-005
  0.13669999999999999         -3.7759251788613561E-005
  0.13755000000000001         -4.1536962912305301E-005
  0.13839999999999997         -4.4724592518715327E-005
  0.13924999999999998         -4.7359605381503551E-005
  0.14010000000000000         -4.9480040939634706E-005
  0.14094999999999996         -5.1124029217391405E-005
  0.14179999999999998         -5.2329597887858376E-005
  0.14265000000000000         -5.3134489510571112E-005
  0.14350000000000002         -5.3575593904690050E-005
  0.14434999999999998         -5.3688947167364870E-005
  0.14520000000000000         -5.3509440815957323E-005
  0.14605000000000001         -5.3070639180465987E-005
  0.14689999999999998         -5.2404490143329103E-005
  0.14774999999999999         -5.1541241699135397E-005
  0.14860000000000001         -5.0509541925927467E-005
  0.14944999999999997         -4.9336262422114580E-005
  0.15029999999999999         -4.8046551048188993E-005
  0.15115000000000001         -4.6663852982974824E-005
  0.15199999999999997         -4.5209711466202250E-005
  0.15284999999999999         -4.3703768089719423E-005
  0.15370000000000000         -4.2163709498554196E-005
  0.15454999999999997         -4.0605371140554692E-005
  0.15539999999999998         -3.9042532733542654E-005
  0.15625000000000000         -3.7487051087059938E-005
  0.15709999999999996         -3.5949146288017789E-005
  0.15794999999999998         -3.4437518233923103E-005
  0.15880000000000000         -3.2959327689373365E-005
  0.15965000000000001         -3.1520585515367530E-005
  0.16049999999999998         -3.0126156147966901E-005
  0.16134999999999999         -2.8779784809966739E-005
  0.16220000000000001         -2.7484215644998189E-005
  0.16304999999999997         -2.6241078284264405E-005
  0.16389999999999999         -2.5051104614181973E-005
  0.16475000000000001         -2.3914071980157517E-005
  0.16559999999999997         -2.2829001725813029E-005
  0.16644999999999999         -2.1794491762900442E-005
  0.16730000000000000         -2.0808827169687571E-005
  0.16814999999999997         -1.9870106948671207E-005
  0.16899999999999998         -1.8976457919188902E-005
  0.16985000000000000         -1.8126065168501477E-005
  0.17069999999999996         -1.7317068570890723E-005
  0.17154999999999998         -1.6547625095876461E-005
  0.17240000000000000         -1.5815825053854155E-005
  0.17325000000000002         -1.5119700454756801E-005
  0.17409999999999998         -1.4457270172630471E-005
  0.17494999999999999         -1.3826558987110512E-005
  0.17580000000000001         -1.3225741189911834E-005
  0.17664999999999997         -1.2653288849358610E-005
  0.17749999999999999         -1.2107944996951443E-005
  0.17835000000000001         -1.1588706254754962E-005
  0.17919999999999997         -1.1094780930033351E-005
  0.18004999999999999         -1.0625521809818642E-005
  0.18090000000000001         -1.0180292534833077E-005
  0.18174999999999997         -9.7583413167561207E-006
  0.18259999999999998         -9.3588319268906891E-006
  0.18345000000000000         -8.9807659930313879E-006
  0.18429999999999996         -8.6230774479189500E-006
  0.18514999999999998         -8.2846222854146181E-006
  0.18600000000000000         -7.9642753854082285E-006
  0.18684999999999996         -7.6609162051431587E-006
  0.18769999999999998         -7.3734459073628132E-006
  0.18855000000000000         -7.1007464114187641E-006
  0.18940000000000001         -6.8416829657504458E-006
  0.19024999999999997         -6.5950297077027263E-006
  0.19109999999999999         -6.3595039989197509E-006
  0.19195000000000001         -6.1337677112381127E-006
  0.19279999999999997         -5.9164339316583921E-006
  0.19364999999999999         -5.7061732801833659E-006
  0.19450000000000001         -5.5016908703578446E-006
  0.19534999999999997         -5.3017398087062688E-006
  0.19619999999999999         -5.1052484971746505E-006
  0.19705000000000000         -4.9112434427290967E-006
  0.19789999999999996         -4.7189303032543904E-006
  0.19874999999999998         -4.5277190793758346E-006
  0.19960000000000000         -4.3371879683484365E-006
  0.20044999999999996         -4.1471729428413961E-006
  0.20129999999999998         -3.9576844169584928E-006
  0.20215000000000000         -3.7690004052097227E-006
  0.20300000000000001         -3.5815497402947831E-006
  0.20384999999999998         -3.3959631655369628E-006
  0.20469999999999999         -3.2130263538377780E-006
  0.20555000000000001         -3.0336444558492459E-006
  0.20639999999999997         -2.8588569172906494E-006
  0.20724999999999999         -2.6898220142025024E-006
  0.20810000000000001         -2.5277796194422419E-006
  0.20894999999999997         -2.3740332819166527E-006
  0.20979999999999999         -2.2299048203894316E-006
  0.21065000000000000         -2.0966582890581001E-006
  0.21149999999999997         -1.9753888234946757E-006
  0.21234999999999998         -1.8670087674314225E-006
  0.21320000000000000         -1.7721730534700454E-006
  0.21404999999999996         -1.6912611879810214E-006
  0.21489999999999998         -1.6243989185410253E-006
  0.21575000000000000         -1.5715248643091034E-006
  0.21659999999999996         -1.5323812243548886E-006
  0.21744999999999998         -1.5065502148882806E-006
  0.21829999999999999         -1.4934677472184820E-006
  0.21915000000000001         -1.4924052877326802E-006
  0.21999999999999997         -1.5024335406416028E-006
  0.22084999999999999         -1.5223954027445967E-006
  0.22170000000000001         -1.5509154133002310E-006
  0.22254999999999997         -1.5864117865739620E-006
  0.22339999999999999         -1.6271913589728974E-006
  0.22425000000000000         -1.6715370164637806E-006
  0.22509999999999997         -1.7177738458342135E-006
  0.22594999999999998         -1.7643747138375030E-006
  0.22680000000000000         -1.8099663561818440E-006
  0.22764999999999996         -1.8533529399996805E-006
  0.22849999999999998         -1.8934707517283052E-006
  0.22935000000000000         -1.9293653132007391E-006
  0.23019999999999996         -1.9601785068168202E-006
  0.23104999999999998         -1.9851310785870452E-006
  0.23190000000000000         -2.0035547767631420E-006
  0.23275000000000001         -2.0149837747598144E-006
  0.23359999999999997         -2.0191644477935733E-006
  0.23444999999999999         -2.0161282834188415E-006
  0.23530000000000001         -2.0061697178033710E-006
  0.23614999999999997         -1.9898101146701568E-006
  0.23699999999999999         -1.9677514234312813E-006
  0.23785000000000001         -1.9407783861157880E-006
  0.23869999999999997         -1.9096906121070984E-006
  0.23954999999999999         -1.8752181442219813E-006
  0.24040000000000000         -1.8380357381249230E-006
  0.24124999999999996         -1.7987249461773269E-006
  0.24209999999999998         -1.7578078470305683E-006
  0.24295000000000000         -1.7157463065837416E-006
  0.24379999999999996         -1.6729561689954691E-006
  0.24464999999999998         -1.6297831989314161E-006
  0.24550000000000000         -1.5864901044480252E-006
  0.24634999999999996         -1.5432033321425653E-006
  0.24719999999999998         -1.4999230486872446E-006
  0.24804999999999999         -1.4564698984076956E-006
  0.24890000000000001         -1.4125347603950995E-006
  0.24974999999999997         -1.3676824689669027E-006
  0.25059999999999999         -1.3214000008718505E-006
  0.25145000000000001         -1.2731265322416475E-006
  0.25229999999999997         -1.2222982932612112E-006
  0.25314999999999999         -1.1683590480247143E-006
  0.25400000000000000         -1.1107954254334385E-006
  0.25484999999999997         -1.0491493844528402E-006
  0.25569999999999998         -9.8305762857743781E-007
  0.25655000000000000         -9.1225565742825818E-007
  0.25739999999999996         -8.3662727003591736E-007
  0.25824999999999998         -7.5621849578449049E-007
  0.25910000000000000         -6.7125648958044093E-007
  0.25994999999999996         -5.8216044117818257E-007
  0.26079999999999998         -4.8952942204396475E-007
  0.26164999999999999         -3.9411730253088414E-007
  0.26249999999999996         -2.9684322267952953E-007
  0.26334999999999997         -1.9876098494008683E-007
  0.26419999999999999         -1.0106517095963679E-007
  0.26505000000000001         -5.0705338506782325E-009
  0.26589999999999997          8.7783919368502978E-008
  0.26674999999999999          1.7598311753505628E-007
  0.26760000000000000          2.5796611187864829E-007
  0.26844999999999997          3.3219136647691136E-007
  0.26929999999999998          3.9721108747986372E-007
  0.27015000000000000          4.5171280907235005E-007
  0.27099999999999996          4.9458738817225250E-007
  0.27184999999999998          5.2493686514072388E-007
  0.27270000000000000          5.4208566836840466E-007
  0.27354999999999996          5.4555290302472421E-007
  0.27439999999999998          5.3506983487370603E-007
  0.27524999999999999          5.1054705637856522E-007
  0.27609999999999996          4.7211575038766438E-007
  0.27694999999999997          4.2012226221569369E-007
  0.27779999999999999          3.5519295759140145E-007
  0.27865000000000001          2.7824209119746026E-007
  0.27949999999999997          1.9046237884573759E-007
  0.28034999999999999          9.3318926410830699E-008
  0.28120000000000001         -1.1531731130597661E-008
  0.28204999999999997         -1.2228945295472886E-007
  0.28289999999999998         -2.3710442271382937E-007
  0.28375000000000000         -3.5412639666539415E-007
  0.28459999999999996         -4.7154899893854832E-007
  0.28544999999999998         -5.8762197635996474E-007
  0.28630000000000000         -7.0065406340807489E-007
  0.28714999999999996         -8.0900773809025318E-007
  0.28799999999999998         -9.1110925415951743E-007
  0.28885000000000000         -1.0054853317276233E-006
  0.28969999999999996         -1.0908011938134322E-006
  0.29054999999999997         -1.1659316145104356E-006
  0.29139999999999999         -1.2300138578103366E-006
  0.29224999999999995         -1.2824702920304422E-006
  0.29309999999999997         -1.3230408435418628E-006
  0.29394999999999999         -1.3517360991915613E-006
  0.29480000000000001         -1.3687996504193337E-006
  0.29564999999999997         -1.3746486620513919E-006
  0.29649999999999999         -1.3698196187621471E-006
  0.29735000000000000         -1.3549315941072117E-006
  0.29819999999999997         -1.3306666045065774E-006
  0.29904999999999998         -1.2977700411472308E-006
  0.29990000000000000         -1.2570546800433775E-006
  0.30074999999999996         -1.2094094456128566E-006
  0.30159999999999998         -1.1557711795869904E-006
  0.30245000000000000         -1.0971186678768158E-006
  0.30329999999999996         -1.0344190451588815E-006
  0.30414999999999998         -9.6858016946735518E-007
  0.30499999999999999         -9.0041153341143398E-007
  0.30584999999999996         -8.3059749673021975E-007
  0.30669999999999997         -7.5967929734951774E-007
  0.30754999999999999         -6.8806384504202189E-007
  0.30840000000000001         -6.1603582694867526E-007
  0.30924999999999997         -5.4378154393166758E-007
  0.31009999999999999         -4.7140677351952380E-007
  0.31095000000000000         -3.9896483399923114E-007
  0.31179999999999997         -3.2645517667482368E-007
  0.31264999999999998         -2.5384300636751653E-007
  0.31350000000000000         -1.8107103902796276E-007
  0.31434999999999996         -1.0807284353866652E-007
  0.31519999999999998         -3.4787732568023346E-008
  0.31605000000000000          3.8806510083733860E-008
  0.31689999999999996          1.1267771036239853E-007
  0.31774999999999998          1.8671180593577367E-007
  0.31859999999999999          2.6068967779805473E-007
  0.31944999999999996          3.3427791788486463E-007
  0.32029999999999997          4.0700448582481167E-007
  0.32114999999999999          4.7827627323014017E-007
  0.32199999999999995          5.4735865183497393E-007
  0.32284999999999997          6.1340158581641594E-007
  0.32369999999999999          6.7545598651868680E-007
  0.32455000000000001          7.3250527130379116E-007
  0.32539999999999997          7.8349900806719131E-007
  0.32624999999999998          8.2738973775174243E-007
  0.32710000000000000          8.6316864510160788E-007
  0.32794999999999996          8.8988894003365331E-007
  0.32879999999999998          9.0669136748540140E-007
  0.32965000000000000          9.1281140438060922E-007
  0.33049999999999996          9.0758286099693573E-007
  0.33134999999999998          8.9046030358032724E-007
  0.33220000000000000          8.6102967165076763E-007
  0.33304999999999996          8.1904661372283951E-007
  0.33389999999999997          7.6446042236527433E-007
  0.33474999999999999          6.9746478648927042E-007
  0.33559999999999995          6.1850385497345028E-007
  0.33644999999999997          5.2829929828831538E-007
  0.33729999999999999          4.2783507588185820E-007
  0.33815000000000001          3.1831946280006334E-007
  0.33899999999999997          2.0115657187365542E-007
  0.33984999999999999          7.7889600569207010E-008
  0.34070000000000000         -4.9839082938248834E-008
  0.34154999999999996         -1.8031581797376928E-007
  0.34239999999999998         -3.1177141410209006E-007