 -0.12000000000000000          0.0000000000000000
 -0.11914999999999999          0.0000000000000000
 -0.11830000000000000          0.0000000000000000
 -0.11745000000000000          0.0000000000000000
 -0.11660000000000000          0.0000000000000000
 -0.11574999999999999          0.0000000000000000
 -0.11490000000000000          0.0000000000000000
 -0.11405000000000000          0.0000000000000000
 -0.11320000000000000          5.6673799830329636E-027
 -0.11234999999999999          7.9735982066115080E-026
 -0.11150000000000000          5.4571661221252303E-025
 -0.11065000000000000          2.3399926801244080E-024
 -0.10979999999999999          6.5211335478204020E-024
 -0.10894999999999999          9.1888750047818040E-024
 -0.10810000000000000         -1.5435200308283840E-023
 -0.10725000000000000         -1.4802435808884381E-022
 -0.10639999999999999         -5.5166714604965057E-022
 -0.10554999999999999         -1.4061398775056049E-021
 -0.10470000000000000         -2.5670162686359620E-021
 -0.10385000000000000         -2.7397928592905080E-021
 -0.10299999999999999          1.7896666353240651E-021
 -0.10214999999999999          1.8028307155030420E-020
 -0.10130000000000000          5.4501610772522946E-020
 -0.10045000000000000          1.1316480189812393E-019
  -9.9599999999999994E-002     1.7164790421140135E-019
  -9.8750000000000004E-002     1.5730915858823566E-019
  -9.7900000000000001E-002    -7.3617823317513990E-020
  -9.7049999999999997E-002    -7.2055283850979239E-019
  -9.6199999999999994E-002    -1.9396391458164728E-018
  -9.5349999999999990E-002    -3.6183885009576134E-018
  -9.4500000000000001E-002    -5.0300404361426631E-018
  -9.3649999999999997E-002    -4.4867064555152354E-018
  -9.2799999999999994E-002     7.2263052522376008E-019
  -9.1950000000000004E-002     1.3667374686099142E-017
  -9.1100000000000000E-002     3.5930244941268595E-017
  -9.0249999999999997E-002     6.4438127868841750E-017
  -8.9399999999999993E-002     8.7597206148326571E-017
  -8.8549999999999990E-002     8.2564019777299890E-017
  -8.7700000000000000E-002     1.6764820059561425E-017
  -8.6849999999999997E-002    -1.4261998970026948E-016
  -8.5999999999999993E-002    -4.0861417598405022E-016
  -8.5150000000000003E-002    -7.4506401887647056E-016
  -8.4300000000000000E-002    -1.0358503506800334E-015
  -8.3449999999999996E-002    -1.0689486218080641E-015
  -8.2600000000000007E-002    -5.5820856004933439E-016
  -8.1749999999999989E-002     7.7447438386342798E-016
  -8.0900000000000000E-002     3.0464395711352544E-015
  -8.0049999999999996E-002     6.0089535411708464E-015
  -7.9199999999999993E-002     8.8486684120508614E-015
  -7.8350000000000003E-002     1.0099091784925648E-014
  -7.7499999999999999E-002     7.7919212482953808E-015
  -7.6649999999999996E-002    -3.7840987292709106E-017
  -7.5800000000000006E-002    -1.4459716312294908E-014
  -7.4949999999999989E-002    -3.4487586373374044E-014
  -7.4099999999999999E-002    -5.5972843990712172E-014
  -7.3249999999999996E-002    -7.1066840945406055E-014
  -7.2399999999999992E-002    -6.8865903732348097E-014
  -7.1550000000000002E-002    -3.7750404884514569E-014
  -7.0699999999999999E-002     3.0448254513943206E-014
  -6.9849999999999995E-002     1.3497654721399892E-013
  -6.9000000000000006E-002     2.6073958136361740E-013
  -6.8149999999999988E-002     3.7505872838525664E-013
  -6.7299999999999999E-002     4.2910358863132045E-013
  -6.6449999999999995E-002     3.6611463258257609E-013
  -6.5599999999999992E-002     1.3715754306085830E-013
  -6.4750000000000002E-002    -2.7720950686293988E-013
  -6.3899999999999998E-002    -8.4393033689763259E-013
  -6.3049999999999995E-002    -1.4604517963047323E-012
  -6.2199999999999998E-002    -1.9525826905490149E-012
  -6.1350000000000002E-002    -2.0952011031518421E-012
  -6.0499999999999998E-002    -1.6598124645970472E-012
  -5.9650000000000002E-002    -4.8586760310255976E-013
  -5.8799999999999998E-002     1.4364078367259392E-012
  -5.7950000000000002E-002     3.8929125843317663E-012
  -5.7099999999999998E-002     6.4094057395499428E-012
  -5.6249999999999994E-002     8.2787803160619296E-012
  -5.5400000000000005E-002     8.6696393836360373E-012
  -5.4550000000000001E-002     6.8161529236490277E-012
  -5.3699999999999998E-002     2.2647251748015807E-012
  -5.2849999999999994E-002    -4.8727991159143228E-012
  -5.2000000000000005E-002    -1.3729747990066479E-011
  -5.1150000000000001E-002    -2.2635691530818555E-011
  -5.0299999999999997E-002    -2.9270858823874459E-011
  -4.9449999999999994E-002    -3.1050763075361168E-011
  -4.8600000000000004E-002    -2.5712908503179310E-011
  -4.7750000000000001E-002    -1.2013490181018729E-011
  -4.6899999999999997E-002     9.6155766773231608E-012
  -4.6049999999999994E-002     3.6632776145222646E-011
  -4.5200000000000004E-002     6.4354016684047109E-011
  -4.4350000000000001E-002     8.6443908590047959E-011
  -4.3499999999999997E-002     9.5954376168629435E-011
  -4.2649999999999993E-002     8.6801544250796974E-011
  -4.1800000000000004E-002     5.5435462574185221E-011
  -4.0950000000000000E-002     2.3496791129672517E-012
  -4.0099999999999997E-002    -6.6966643089901566E-011
  -3.9249999999999993E-002    -1.4198877892537744E-010
  -3.8400000000000004E-002    -2.0824540529964275E-010
  -3.7550000000000000E-002    -2.4953611671259475E-010
  -3.6699999999999997E-002    -2.5101688457598919E-010
  -3.5850000000000007E-002    -2.0264526316675486E-010
  -3.5000000000000003E-002    -1.0230133771868044E-010
  -3.4150000000000000E-002     4.2148690765261540E-011
  -3.3299999999999996E-002     2.1247344225501901E-010
  -3.2450000000000007E-002     3.8174455059239969E-010
  -3.1600000000000003E-002     5.1803512237099895E-010
  -3.0750000000000000E-002     5.8970122824875322E-010
  -2.9899999999999996E-002     5.7141046377158416E-010
  -2.9050000000000006E-002     4.4982515956916136E-010
  -2.8200000000000003E-002     2.2779114435869432E-010
  -2.7349999999999999E-002    -7.3939012694076244E-011
  -2.6499999999999996E-002    -4.1802569800243521E-010
  -2.5650000000000006E-002    -7.5493997255372581E-010
  -2.4800000000000003E-002    -1.0298875215219902E-009
  -2.3949999999999999E-002    -1.1911977960180631E-009
  -2.3099999999999996E-002    -1.1987970696937236E-009
  -2.2250000000000006E-002    -1.0313233823858725E-009
  -2.1400000000000002E-002    -6.9066626112229998E-010
  -2.0549999999999999E-002    -2.0317458666638061E-010
  -1.9699999999999995E-002     3.8263028410675917E-010
  -1.8850000000000006E-002     1.0013895267981104E-009
  -1.8000000000000002E-002     1.5783684874131952E-009
  -1.7149999999999999E-002     2.0378712740216320E-009
  -1.6299999999999995E-002     2.3114554566588478E-009
  -1.5450000000000005E-002     2.3450573720680345E-009
  -1.4600000000000002E-002     2.1045453740086781E-009
  -1.3749999999999998E-002     1.5796506475823649E-009
  -1.2899999999999995E-002     7.8650959924696401E-010
  -1.2050000000000005E-002    -2.3087499769248625E-010
  -1.1200000000000002E-002    -1.4001510443710218E-009
  -1.0349999999999998E-002    -2.6214119364206285E-009
  -9.5000000000000084E-003    -3.7700386595094494E-009
  -8.6500000000000049E-003    -4.7026922097136716E-009
  -7.8000000000000014E-003    -5.2675793129697407E-009
  -6.9499999999999978E-003    -5.3196555907834246E-009
  -6.1000000000000082E-003    -4.7405210156519773E-009
  -5.2500000000000047E-003    -3.4614316902801177E-009
  -4.4000000000000011E-003    -1.4864695385633491E-009
  -3.5499999999999976E-003     1.0882957225253673E-009
  -2.7000000000000079E-003     4.0644167877041659E-009
  -1.8500000000000044E-003     7.1438853379530309E-009
  -1.0000000000000009E-003     9.9482863933192074E-009
  -1.4999999999999736E-004     1.2055100090180896E-008
   6.9999999999999230E-004     1.3048990900022240E-008
   1.5499999999999958E-003     1.2582810825533128E-008
   2.3999999999999994E-003     1.0440309320011402E-008
   3.2500000000000029E-003     6.5908566931824600E-009
   4.0999999999999925E-003     1.2263183843821518E-009
   4.9499999999999961E-003    -5.2283847367472050E-009
   5.7999999999999996E-003    -1.2136340130399291E-008
   6.6499999999999893E-003    -1.8702437295221635E-008
   7.5000000000000067E-003    -2.4056100873146926E-008
   8.3499999999999963E-003    -2.7354565752338432E-008
   9.1999999999999860E-003    -2.7894572623582984E-008
   1.0050000000000003E-002    -2.5218302441718687E-008
   1.0899999999999993E-002    -1.9199055602141891E-008
   1.1750000000000010E-002    -1.0094139514573993E-008
   1.2600000000000000E-002     1.4442031639765422E-009
   1.3449999999999990E-002     1.4404068194097288E-008
   1.4300000000000007E-002     2.7494308554460832E-008
   1.5149999999999997E-002     3.9263660646115797E-008
   1.5999999999999986E-002     4.8247580737640152E-008
   1.6850000000000004E-002     5.3128374612487431E-008
   1.7699999999999994E-002     5.2892251015056188E-008
   1.8549999999999983E-002     4.6966756655328329E-008
   1.9400000000000001E-002     3.5323176841726545E-008
   2.0249999999999990E-002     1.8531456845326542E-008
   2.1100000000000008E-002    -2.2412530068052840E-009
   2.1949999999999997E-002    -2.5292287626442825E-008
   2.2799999999999987E-002    -4.8504228240839897E-008
   2.3650000000000004E-002    -6.9517980918322120E-008
   2.4499999999999994E-002    -8.5946219917753178E-008
   2.5349999999999984E-002    -9.5610385872924059E-008
   2.6200000000000001E-002    -9.6780774438656816E-008
   2.7049999999999991E-002    -8.8396577187637658E-008
   2.7900000000000008E-002    -7.0242253339972230E-008
   2.8749999999999998E-002    -4.3058040949838064E-008
   2.9599999999999987E-002    -8.5661573537190571E-009
   3.0450000000000005E-002     3.0599397151475847E-008
   3.1299999999999994E-002     7.1062985867516908E-008
   3.2149999999999984E-002     1.0897114637497752E-007
   3.3000000000000002E-002     1.4033273425282595E-007
   3.3849999999999991E-002     1.6140790654556785E-007
   3.4700000000000009E-002     1.6910986189127129E-007
   3.5549999999999998E-002     1.6137790033182416E-007
   3.6399999999999988E-002     1.3747946965414355E-007
   3.7250000000000005E-002     9.8202313636711469E-008
   3.8099999999999995E-002     4.5907111000864808E-008
   3.8949999999999985E-002    -1.5576579262329038E-008
   3.9800000000000002E-002    -8.1211560220785826E-008
   4.0649999999999992E-002    -1.4515546330214472E-007
   4.1500000000000009E-002    -2.0127178368591077E-007
   4.2349999999999999E-002    -2.4370392025732932E-007
   4.3199999999999988E-002    -2.6745752845125672E-007
   4.4050000000000006E-002    -2.6893379780674713E-007
   4.4899999999999995E-002    -2.4635851185142438E-007
   4.5749999999999985E-002    -2.0006044619737425E-007
   4.6600000000000003E-002    -1.3256542198025264E-007
   4.7449999999999992E-002    -4.8488818401143534E-008
   4.8299999999999982E-002     4.5772411320464285E-008
   4.9149999999999999E-002     1.4252842642699879E-007
   4.9999999999999989E-002     2.3342883603250627E-007
   5.0850000000000006E-002     3.1018640083471965E-007
   5.1699999999999996E-002     3.6532904258529195E-007
   5.2549999999999986E-002     3.9291105302710516E-007
   5.3400000000000003E-002     3.8911514643356419E-007
   5.4249999999999993E-002     3.5268332031418440E-007
   5.5099999999999982E-002     2.8512934112897469E-007
   5.5950000000000000E-002     1.9070410300597078E-007
   5.6799999999999989E-002     7.6109764652731770E-008
   5.7650000000000007E-002    -5.0016350899073502E-008
   5.8499999999999996E-002    -1.7780311974046445E-007
   5.9349999999999986E-002    -2.9696761061209518E-007
   6.0200000000000004E-002    -3.9768112809464483E-007
   6.1049999999999993E-002    -4.7139837820848831E-007
   6.1899999999999983E-002    -5.1157498721206699E-007
   6.2750000000000000E-002    -5.1421124001778398E-007
   6.3599999999999990E-002    -4.7818054907790108E-007
   6.4450000000000007E-002    -4.0532125073188291E-007
   6.5299999999999997E-002    -3.0029399057531771E-007
   6.6149999999999987E-002    -1.7022544137107851E-007
   6.7000000000000004E-002    -2.4173915325021565E-008
   6.7849999999999994E-002     1.2753773106623977E-007
   6.8699999999999983E-002     2.7407070808783524E-007
   6.9550000000000001E-002     4.0484848157000248E-007
   7.0399999999999990E-002     5.1031226851613226E-007
   7.1249999999999980E-002     5.8260541605007319E-007
   7.2099999999999997E-002     6.1614171504211039E-007
   7.2949999999999987E-002     6.0801853482582381E-007
   7.3800000000000004E-002     5.5824394819774850E-007
   7.4649999999999994E-002     4.6975838102026161E-007
   7.5499999999999984E-002     3.4824358759235866E-007
   7.6350000000000001E-002     2.0172946941545555E-007
   7.7199999999999991E-002     4.0024595923975299E-008
   7.8049999999999981E-002    -1.2598752398983306E-007
   7.8899999999999998E-002    -2.8513195029934048E-007
   7.9749999999999988E-002    -4.2674378451199408E-007
   8.0600000000000005E-002    -5.4142388866444362E-007
   8.1449999999999995E-002    -6.2169051977173270E-007
   8.2299999999999984E-002    -6.6247834255113544E-007
   8.3150000000000002E-002    -6.6145078307904979E-007
   8.3999999999999991E-002    -6.1910845067255240E-007
   8.4849999999999981E-002    -5.3869279231384183E-007
   8.5699999999999998E-002    -4.2590036040176981E-007
   8.6549999999999988E-002    -2.8843451356323441E-007
   8.7400000000000005E-002    -1.3543353724540406E-007
   8.8249999999999995E-002     2.3181880548745832E-008
   8.9099999999999985E-002     1.7739347321888525E-007
   8.9950000000000002E-002     3.1775578301781465E-007
   9.0799999999999992E-002     4.3600694248284771E-007
   9.1649999999999981E-002     5.2558090505228202E-007
   9.2499999999999999E-002     5.8198910330893755E-007
   9.3349999999999989E-002     6.0304985054066132E-007
   9.4200000000000006E-002     5.8895385279859906E-007
   9.5049999999999996E-002     5.4216556464959274E-007
   9.5899999999999985E-002     4.6717185407046189E-007
   9.6750000000000003E-002     3.7009830943908146E-007
   9.7599999999999992E-002     2.5822186127254494E-007
   9.8449999999999982E-002     1.3941510006588987E-007
   9.9299999999999999E-002     2.1560925318516903E-008
  0.10014999999999999         -8.8022312165793305E-008
  0.10099999999999998         -1.8310498456161606E-007
  0.10185000000000000         -2.5898200290743674E-007
  0.10269999999999999         -3.1278745074118533E-007
  0.10355000000000000         -3.4366075130080964E-007
  0.10439999999999999         -3.5274698061701076E-007
  0.10524999999999998         -3.4302363675596464E-007
  0.10610000000000000         -3.1896055000413249E-007
  0.10694999999999999         -2.8603340042560407E-007
  0.10779999999999998         -2.5012738533335254E-007
  0.10865000000000000         -2.1688141229644907E-007
  0.10949999999999999         -1.9103534130260346E-007
  0.11035000000000000         -1.7584907031472157E-007
  0.11119999999999999         -1.7266314188916746E-007
  0.11204999999999998         -1.8066182504881203E-007
  0.11290000000000000         -1.9688287071004917E-007
  0.11374999999999999         -2.1649363550211875E-007
  0.11459999999999998         -2.3332138312119751E-007
  0.11545000000000000         -2.4059304247717149E-007
  0.11629999999999999         -2.3180735264556932E-007
  0.11715000000000000         -2.0163922460528621E-007
  0.11799999999999999         -1.4676299217144434E-007
  0.11884999999999998         -6.6483940558819554E-008
  0.11970000000000000          3.6913586262188834E-008
  0.12054999999999999          1.5816135453224832E-007
  0.12139999999999998          2.8936056942482952E-007
  0.12225000000000000          4.2066114927158295E-007
  0.12309999999999999          5.4118931872603324E-007
  0.12395000000000000          6.4011351333384281E-007
  0.12479999999999999          7.0772008981549118E-007
  0.12564999999999998          7.3636809189774124E-007
  0.12650000000000000          7.2121159581822282E-007
  0.12734999999999999          6.6061119926585754E-007
  0.12819999999999998          5.5619789333736184E-007
  0.12905000000000000          4.1259241720493909E-007
  0.12989999999999999          2.3682687650532247E-007
  0.13074999999999998          3.7544024042038870E-008
  0.13159999999999999         -1.7593355634601682E-007
  0.13245000000000001         -3.9456490799277557E-007
  0.13329999999999997         -6.1049979230015757E-007
  0.13414999999999999         -8.1785635486618521E-007
  0.13500000000000001         -1.0133070663392542E-006
  0.13584999999999997         -1.1964466897625644E-006
  0.13669999999999999         -1.3699320372685161E-006
  0.13755000000000001         -1.5393984772067823E-006
  0.13839999999999997         -1.7131839690303394E-006
  0.13924999999999998         -1.9019161568132470E-006
  0.14010000000000000         -2.1180219988491610E-006
  0.14094999999999996         -2.3752216961578417E-006
  0.14179999999999998         -2.6881012959999536E-006
  0.14265000000000000         -3.0718264773487656E-006
  0.14350000000000002         -3.5420509747010796E-006
  0.14434999999999998         -4.1150803418630778E-006
  0.14520000000000000         -4.8082939929707171E-006
  0.14605000000000001         -5.6408347778322096E-006
  0.14689999999999998         -6.6345149176003596E-006
  0.14774999999999999         -7.8148482825113052E-006
  0.14860000000000001         -9.2121422789472578E-006
  0.14944999999999997         -1.0862551509018730E-005
  0.15029999999999999         -1.2808986346261587E-005
  0.15115000000000001         -1.5101867094570046E-005
  0.15199999999999997         -1.7799760585134977E-005
  0.15284999999999999         -2.0969744226472704E-005
  0.15370000000000000         -2.4687782985056209E-005
  0.15454999999999997         -2.9039058198498623E-005
  0.15539999999999998         -3.4118470086001268E-005
  0.15625000000000000         -4.0031311404845937E-005
  0.15709999999999996         -4.6894021199945684E-005
  0.15794999999999998         -5.4835549995319462E-005
  0.15880000000000000         -6.3999003930720056E-005
  0.15965000000000001         -7.4543547580889914E-005
  0.16049999999999998         -8.6646481106390631E-005
  0.16134999999999999         -1.0050562215107721E-004
  0.16220000000000001         -1.1634179251113382E-004
  0.16304999999999997         -1.3440080036758442E-004
  0.16389999999999999         -1.5495513336390439E-004
  0.16475000000000001         -1.7830573867079941E-004
  0.16559999999999997         -2.0478286603496486E-004
  0.16644999999999999         -2.3474690156307014E-004
  0.16730000000000000         -2.6858804721837699E-004
  0.16814999999999997         -3.0672639285351350E-004
  0.16899999999999998         -3.4961099585477932E-004
  0.16985000000000000         -3.9771940705569248E-004
  0.17069999999999996         -4.5155617535881225E-004
  0.17154999999999998         -5.1165177162902187E-004
  0.17240000000000000         -5.7856143507399648E-004
  0.17325000000000002         -6.5286412263705889E-004
  0.17409999999999998         -7.3516081070629572E-004
  0.17494999999999999         -8.2607362749398351E-004
  0.17580000000000001         -9.2624556761788024E-004
  0.17664999999999997         -1.0363381551184879E-003
  0.17749999999999999         -1.1570285809639400E-003
  0.17835000000000001         -1.2890082960700026E-003
  0.17919999999999997         -1.4329778147365874E-003
  0.18004999999999999         -1.5896431353493146E-003
  0.18090000000000001         -1.7597094432355959E-003
  0.18174999999999997         -1.9438701627324806E-003
  0.18259999999999998         -2.1427982977593333E-003
  0.18345000000000000         -2.3571330730438292E-003
  0.18429999999999996         -2.5874641045847691E-003
  0.18514999999999998         -2.8343161831797282E-003
  0.18600000000000000         -3.0981290390294826E-003
  0.18684999999999996         -3.3792388929431137E-003
  0.18769999999999998         -3.6778565851817583E-003
  0.18855000000000000         -3.9940442831966801E-003
  0.18940000000000001         -4.3276976835696090E-003
  0.19024999999999997         -4.6785223058242878E-003
  0.19109999999999999         -5.0460142901310127E-003
  0.19195000000000001         -5.4294354143937821E-003
  0.19279999999999997         -5.8277912205659359E-003
  0.19364999999999999         -6.2398064030729028E-003
  0.19450000000000001         -6.6639071554088240E-003
  0.19534999999999997         -7.0981957554485785E-003
  0.19619999999999999         -7.5404202168370170E-003
  0.19705000000000000         -7.9879559732461206E-003
  0.19789999999999996         -8.4377835233451198E-003
  0.19874999999999998         -8.8864671462620358E-003
  0.19960000000000000         -9.3301418656609632E-003
  0.20044999999999996         -9.7644885194450998E-003
  0.20129999999999998         -1.0184730993133124E-002
  0.20215000000000000         -1.0585640987727251E-002
  0.20300000000000001         -1.0961535152621632E-002
  0.20384999999999998         -1.1306278192870342E-002
  0.20469999999999999         -1.1613305621648811E-002
  0.20555000000000001         -1.1875657433947265E-002
  0.20639999999999997         -1.2086013874562079E-002
  0.20724999999999999         -1.2236749375104791E-002
  0.20810000000000001         -1.2319994952420964E-002
  0.20894999999999997         -1.2327688632236026E-002
  0.20979999999999999         -1.2251671830657602E-002
  0.21065000000000000         -1.2083786098495246E-002
  0.21149999999999997         -1.1815963695119563E-002
  0.21234999999999998         -1.1440343706841613E-002
  0.21320000000000000         -1.0949370111673599E-002
  0.21404999999999996         -1.0335929451605193E-002
  0.21489999999999998         -9.5934773703469679E-003
  0.21575000000000000         -8.7161560264807335E-003
  0.21659999999999996         -7.6989217036195516E-003
  0.21744999999999998         -6.5377066369267283E-003
  0.21829999999999999         -5.2295410374120291E-003
  0.21915000000000001         -3.7726715803582255E-003
  0.21999999999999997         -2.1667182837642662E-003
  0.22084999999999999         -4.1277529301859744E-004
  0.22170000000000001          1.4864883565340709E-003
  0.22254999999999997          3.5267084928595144E-003
  0.22339999999999999          5.7017494151749759E-003
  0.22425000000000000          8.0036532621808910E-003
  0.22509999999999997          1.0422594312992141E-002
  0.22594999999999998          1.2946849750685977E-002
  0.22680000000000000          1.5562800654700977E-002
  0.22764999999999996          1.8254938500425130E-002
  0.22849999999999998          2.1005916972829494E-002
  0.22935000000000000          2.3796639670233599E-002
  0.23019999999999996          2.6606360730380561E-002
  0.23104999999999998          2.9412827748560525E-002
  0.23190000000000000          3.2192451708787796E-002
  0.23275000000000001          3.4920490221852493E-002
  0.23359999999999997          3.7571282711799811E-002
  0.23444999999999999          4.0118505841875235E-002
  0.23530000000000001          4.2535414232791995E-002
  0.23614999999999997          4.4795121489191382E-002
  0.23699999999999999          4.6870930523470147E-002
  0.23785000000000001          4.8736639028001232E-002
  0.23869999999999997          5.0366819518247084E-002
  0.23954999999999999          5.1737176982538477E-002
  0.24040000000000000          5.2824846161149575E-002
  0.24124999999999996          5.3608704784950972E-002
  0.24209999999999998          5.4069681134699718E-002
  0.24295000000000000          5.4191038154720893E-002
  0.24379999999999996          5.3958694117976422E-002
  0.24464999999999998          5.3361396755325835E-002
  0.24550000000000000          5.2391000588170367E-002
  0.24634999999999996          5.1042677013268749E-002
  0.24719999999999998          4.9315010186123345E-002
  0.24804999999999999          4.7210168284694452E-002
  0.24890000000000001          4.4733984086595277E-002
  0.24974999999999997          4.1895936285716570E-002
  0.25059999999999999          3.8709172474283932E-002
  0.25145000000000001          3.5190446436838795E-002
  0.25229999999999997          3.1359994130361828E-002
  0.25314999999999999          2.7241422576139297E-002
  0.25400000000000000          2.2861495825603012E-002
  0.25484999999999997          1.8249907476480722E-002
  0.25569999999999998          1.3439024545892077E-002
  0.25655000000000000          8.4635653074831719E-003
  0.25739999999999996          3.3602698071916112E-003
  0.25824999999999998         -1.8324623188454604E-003
  0.25910000000000000         -7.0749731983313904E-003
  0.25994999999999996         -1.2326768628032250E-002
  0.26079999999999998         -1.7546919650921596E-002
  0.26164999999999999         -2.2694495348377999E-002
  0.26249999999999996         -2.7729008343009186E-002
  0.26334999999999997         -3.2610808580469421E-002
  0.26419999999999999         -3.7301520651729959E-002
  0.26505000000000001         -4.1764455307007391E-002
  0.26589999999999997         -4.5964995996030308E-002
  0.26674999999999999         -4.9870941214342254E-002
  0.26760000000000000         -5.3452838684715107E-002
  0.26844999999999997         -5.6684304918511751E-002
  0.26929999999999998         -5.9542247409637108E-002
  0.27015000000000000         -6.2007067347486108E-002
  0.27099999999999996         -6.4062903029284343E-002
  0.27184999999999998         -6.5697680246623757E-002
  0.27270000000000000         -6.6903250277087573E-002
  0.27354999999999996         -6.7675408980755081E-002
  0.27439999999999998         -6.8013881000891507E-002
  0.27524999999999999         -6.7922258685173514E-002
  0.27609999999999996         -6.7407908521275928E-002
  0.27694999999999997         -6.6481849102910329E-002
  0.27779999999999999         -6.5158550750972224E-002
  0.27865000000000001         -6.3455727432568360E-002
  0.27949999999999997         -6.1394087311360292E-002
  0.28034999999999999         -5.8997057333254166E-002
  0.28120000000000001         -5.6290488362599686E-002
  0.28204999999999997         -5.3302358426030240E-002
  0.28289999999999998         -5.0062383422873835E-002
  0.28375000000000000         -4.6601727628789176E-002
  0.28459999999999996         -4.2952584348718952E-002
  0.28544999999999998         -3.9147852218774759E-002
  0.28630000000000000         -3.5220792687526384E-002
  0.28714999999999996         -3.1204684457075867E-002
  0.28799999999999998         -2.7132490034875213E-002
  0.28885000000000000         -2.3036552481373110E-002
  0.28969999999999996         -1.8948270348677076E-002
  0.29054999999999997         -1.4897820101139186E-002
  0.29139999999999999         -1.0913933681672771E-002
  0.29224999999999995         -7.0236077317642181E-003
  0.29309999999999997         -3.2519426349151958E-003
  0.29394999999999999          3.7805083186282082E-004
  0.29480000000000001          3.8455741644430538E-003
  0.29564999999999997          7.1321728965375898E-003
  0.29649999999999999          1.0221817791534466E-002
  0.29735000000000000          1.3100915211045467E-002
  0.29819999999999997          1.5758349994191265E-002
  0.29904999999999998          1.8185474607633777E-002
  0.29990000000000000          2.0376052711569208E-002
  0.30074999999999996          2.2326208052653649E-002
  0.30159999999999998          2.4034349751353545E-002
  0.30245000000000000          2.5501038480416426E-002
  0.30329999999999996          2.6728873998043814E-002
  0.30414999999999998          2.7722378524670091E-002
  0.30499999999999999          2.8487824818492147E-002
  0.30584999999999996          2.9033088396763631E-002
  0.30669999999999997          2.9367477783841908E-002
  0.30754999999999999          2.9501548965309668E-002
  0.30840000000000001          2.9446943361814661E-002
  0.30924999999999997          2.9216200680680177E-002
  0.31009999999999999          2.8822583329081625E-002
  0.31095000000000000          2.8279890172997459E-002
  0.31179999999999997          2.7602278635844833E-002
  0.31264999999999998          2.6804113531081322E-002
  0.31350000000000000          2.5899802832982637E-002
  0.31434999999999996          2.4903654556298914E-002
  0.31519999999999998          2.3829737033495210E-002
  0.31605000000000000          2.2691772782426255E-002
  0.31689999999999996          2.1503024471133229E-002
  0.31774999999999998          2.0276192855708940E-002
  0.31859999999999999          1.9023339496750429E-002
  0.31944999999999996          1.7755814973614274E-002
  0.32029999999999997          1.6484189970718949E-002
  0.32114999999999999          1.5218211721705502E-002
  0.32199999999999995          1.3966775553776860E-002
  0.32284999999999997          1.2737911812600483E-002
  0.32369999999999999          1.1538773320818801E-002
  0.32455000000000001          1.0375661173257915E-002
  0.32539999999999997          9.2540288752048869E-003
  0.32624999999999998          8.1785080950337926E-003
  0.32710000000000000          7.1529377376418936E-003
  0.32794999999999996          6.1803909222889596E-003
  0.32879999999999998          5.2632037113204688E-003
  0.32965000000000000          4.4030040182383547E-003
  0.33049999999999996          3.6007689412192049E-003
  0.33134999999999998          2.8568592724645364E-003
  0.33220000000000000          2.1710735816072536E-003
  0.33304999999999996          1.5427135472733020E-003
  0.33389999999999997          9.7063724221813780E-004
  0.33474999999999999          4.5332093302379549E-004
  0.33559999999999995         -1.1081128025516672E-005
  0.33644999999999997         -4.2468524478197280E-004
  0.33729999999999999         -7.8982780678551340E-004
  0.33815000000000001         -1.1090264981165790E-003
  0.33899999999999997         -1.3849420768458779E-003
  0.33984999999999999         -1.6203340565166728E-003
  0.34070000000000000         -1.8180259414015238E-003
  0.34154999999999996         -1.9808674693863669E-003
  0.34239999999999998         -2.1116975483468589E-003
  0.34325000000000000         -2.2133143038922196E-003