 -0.12000000000000000          0.0000000000000000
 -0.11914999999999999          2.3858019284071597E-008
 -0.11830000000000000          1.7791473464700300E-007
 -0.11745000000000000          5.1452839114500344E-007
 -0.11660000000000000          8.3215307699109291E-007
 -0.11574999999999999          6.3731765806922400E-007
 -0.11490000000000000         -5.9880958725267028E-007
 -0.11405000000000000         -2.9525407815952618E-006
 -0.11320000000000000         -5.6024280674027576E-006
 -0.11234999999999999         -6.7886551659996376E-006
 -0.11150000000000000         -4.4153929960099218E-006
 -0.11065000000000000          2.7832346700062808E-006
 -0.10979999999999999          1.3969643769330400E-005
 -0.10894999999999999          2.5515010523117515E-005
 -0.10810000000000000          3.1519974534730787E-005
 -0.10725000000000000          2.5743547394898629E-005
 -0.10639999999999999          4.4912146123212554E-006
 -0.10554999999999999         -3.0595408134515212E-005
 -0.10470000000000000         -7.1170134592801474E-005
 -0.10385000000000000         -1.0327996055690963E-004
 -0.10299999999999999         -1.1115876876854446E-004
 -0.10214999999999999         -8.2851970121004359E-005
 -0.10130000000000000         -1.5848554186904512E-005
 -0.10045000000000000          7.9490221454247301E-005
  -9.9599999999999994E-002     1.8047811137845515E-004
  -9.8750000000000004E-002     2.5718311486971343E-004
  -9.7900000000000001E-002     2.8097471689188366E-004
  -9.7049999999999997E-002     2.3403260576296999E-004
  -9.6199999999999994E-002     1.1662953883945276E-004
  -9.5349999999999990E-002    -5.0578760903256624E-005
  -9.4500000000000001E-002    -2.3054801831319727E-004
  -9.3649999999999997E-002    -3.7934135614109600E-004
  -9.2799999999999994E-002    -4.5839544784266422E-004
  -9.1950000000000004E-002    -4.4571742609571415E-004
  -9.1100000000000000E-002    -3.4236385388025994E-004
  -9.0249999999999997E-002    -1.7203142495586700E-004
  -8.9399999999999993E-002     2.6137831914002097E-005
  -8.8549999999999990E-002     2.0914987023127387E-004
  -8.7700000000000000E-002     3.4229173479502473E-004
  -8.6849999999999997E-002     4.0784447456670763E-004
  -8.5999999999999993E-002     4.0769577297898422E-004
  -8.5150000000000003E-002     3.5938879928924670E-004
  -8.4300000000000000E-002     2.8747487480810439E-004
  -8.3449999999999996E-002     2.1363228191445730E-004
  -8.2600000000000007E-002     1.4927897262970280E-004
  -8.1749999999999989E-002     9.3288739268499802E-005
  -8.0900000000000000E-002     3.5344825734070318E-005
  -8.0049999999999996E-002    -3.6730907263271979E-005
  -7.9199999999999993E-002    -1.2889229039242731E-004
  -7.8350000000000003E-002    -2.3543995528462174E-004
  -7.7499999999999999E-002    -3.3860681510343644E-004
  -7.6649999999999996E-002    -4.1349816590371919E-004
  -7.5800000000000006E-002    -4.3658866190355314E-004
  -7.4949999999999989E-002    -3.9457087371655496E-004
  -7.4099999999999999E-002    -2.9012829006093470E-004
  -7.3249999999999996E-002    -1.4228841962012360E-004
  -7.2399999999999992E-002     1.8849821335386989E-005
  -7.1550000000000002E-002     1.6131989898455796E-004
  -7.0699999999999999E-002     2.6110600026142032E-004
  -6.9849999999999995E-002     3.0911475814608702E-004
  -6.9000000000000006E-002     3.1283998466582558E-004
  -6.8149999999999988E-002     2.9224136174302556E-004
  -6.7299999999999999E-002     2.7140299596680942E-004
  -6.6449999999999995E-002     2.6910519021568837E-004
  -6.5599999999999992E-002     2.9161103367901704E-004
  -6.4750000000000002E-002     3.3041646626515999E-004
  -6.3899999999999998E-002     3.6572158978258557E-004
  -6.3049999999999995E-002     3.7444159632444099E-004
  -6.2199999999999998E-002     3.3987966081642997E-004
  -6.1350000000000002E-002     2.5999587411377112E-004
  -6.0499999999999998E-002     1.5104937749157210E-004
  -5.9650000000000002E-002     4.5230746043643867E-005
  -5.8799999999999998E-002    -1.6930420944393609E-005
  -5.7950000000000002E-002     2.0250748478679159E-006
  -5.7099999999999998E-002     1.2506344676096033E-004
  -5.6249999999999994E-002     3.5222259903854264E-004
  -5.5400000000000005E-002     6.5793007345599068E-004
  -5.4550000000000001E-002     9.9515012247534604E-004
  -5.3699999999999998E-002     1.3054306984067517E-003
  -5.2849999999999994E-002     1.5330828985500259E-003
  -5.2000000000000005E-002     1.6392908143888967E-003
  -5.1150000000000001E-002     1.6140455219619380E-003
  -5.0299999999999997E-002     1.4802987007960691E-003
  -4.9449999999999994E-002     1.2911737665766813E-003
  -4.8600000000000004E-002     1.1185247991135558E-003
  -4.7750000000000001E-002     1.0360600517250707E-003
  -4.6899999999999997E-002     1.1003539583011946E-003
  -4.6049999999999994E-002     1.3357969605075268E-003
  -4.5200000000000004E-002     1.7267751320310053E-003
  -4.4350000000000001E-002     2.2198085889634169E-003
  -4.3499999999999997E-002     2.7369658810348150E-003
  -4.2649999999999993E-002     3.1990714438864930E-003
  -4.1800000000000004E-002     3.5480809893718062E-003
  -4.0950000000000000E-002     3.7665838669828939E-003
  -4.0099999999999997E-002     3.8880142364838646E-003
  -3.9249999999999993E-002     3.9893313608755105E-003
  -3.8400000000000004E-002     4.1734116322403869E-003
  -3.7550000000000000E-002     4.5406930555045404E-003
  -3.6699999999999997E-002     5.1618961573809330E-003
  -3.5850000000000007E-002     6.0559033849923154E-003
  -3.5000000000000003E-002     7.1852412729266962E-003
  -3.4150000000000000E-002     8.4697998858922676E-003
  -3.3299999999999996E-002     9.8125345774140674E-003
  -3.2450000000000007E-002     1.1132811296820297E-002
  -3.1600000000000003E-002     1.2397042057565175E-002
  -3.0750000000000000E-002     1.3633714952810643E-002
  -2.9899999999999996E-002     1.4930745354888215E-002
  -2.9050000000000006E-002     1.6419058369131469E-002
  -2.8200000000000003E-002     1.8237946687941910E-002
  -2.7349999999999999E-002     2.0496801624590628E-002
  -2.6499999999999996E-002     2.3257746009289045E-002
  -2.5650000000000006E-002     2.6526170916981735E-002
  -2.4800000000000003E-002     3.0261282896636040E-002
  -2.3949999999999999E-002     3.4405998479426429E-002
  -2.3099999999999996E-002     3.8912637301926067E-002
  -2.2250000000000006E-002     4.3780938994321172E-002
  -2.1400000000000002E-002     4.9064340246177097E-002
  -2.0549999999999999E-002     5.4867457296010502E-002
  -1.9699999999999995E-002     6.1329099798781872E-002
  -1.8850000000000006E-002     6.8590003469819333E-002
  -1.8000000000000002E-002     7.6766022930555330E-002
  -1.7149999999999999E-002     8.5923489921093499E-002
  -1.6299999999999995E-002     9.6082132207272172E-002
  -1.5450000000000005E-002    0.10722873314769188
  -1.4600000000000002E-002    0.11931009669721249
  -1.3749999999999998E-002    0.13229237048882383
  -1.2899999999999995E-002    0.14615075461646113
  -1.2050000000000005E-002    0.16088540602914606
  -1.1200000000000002E-002    0.17653114389135960
  -1.0349999999999998E-002    0.19312844420067454
  -9.5000000000000084E-003    0.21069917013158013
  -8.6500000000000049E-003    0.22924479905244907
  -7.8000000000000014E-003    0.24874065240595042
  -6.9499999999999978E-003    0.26908771970857820
  -6.1000000000000082E-003    0.29018001692089163
  -5.2500000000000047E-003    0.31184209782234285
  -4.4000000000000011E-003    0.33390573645884830
  -3.5499999999999976E-003    0.35617377291282903
  -2.7000000000000079E-003    0.37842592798642694
  -1.8500000000000044E-003    0.40040534290857388
  -1.0000000000000009E-003    0.42180715034173666
  -1.4999999999999736E-004    0.44233645665164806
   6.9999999999999230E-004    0.46160392319222221
   1.5499999999999958E-003    0.47922277357084692
   2.3999999999999994E-003    0.49476462402871557
   3.2500000000000029E-003    0.50782694694803532
   4.0999999999999925E-003    0.51796046202536006
   4.9499999999999961E-003    0.52470398329434542
   5.7999999999999996E-003    0.52753579939903694
   6.6499999999999893E-003    0.52596729012861831
   7.5000000000000067E-003    0.51945126720647883
   8.3499999999999963E-003    0.50740737553135851
   9.1999999999999860E-003    0.48929765813620013
   1.0050000000000003E-002    0.46452783791404867
   1.0899999999999993E-002    0.43262482537851138
   1.1750000000000010E-002    0.39316524639329170
   1.2600000000000000E-002    0.34583076158077830
   1.3449999999999990E-002    0.29023522522871870
   1.4300000000000007E-002    0.22611834735730318
   1.5149999999999997E-002    0.15330107261129478
   1.5999999999999986E-002     7.1587793513156625E-002
   1.6850000000000004E-002    -1.9131607808588285E-002
   1.7699999999999994E-002   -0.11885417188555999
   1.8549999999999983E-002   -0.22747172868254392
   1.9400000000000001E-002   -0.34469005327995256
   2.0249999999999990E-002   -0.47011068669533190
   2.1100000000000008E-002   -0.60309131128884907
   2.1949999999999997E-002   -0.74300213813929983
   2.2799999999999987E-002   -0.88885064982687900
   2.3650000000000004E-002    -1.0397462378990177
   2.4499999999999994E-002    -1.1946353237689402
   2.5349999999999984E-002    -1.3522348242133340
   2.6200000000000001E-002    -1.5112807309958327
   2.7049999999999991E-002    -1.6702220404828438
   2.7900000000000008E-002    -1.8274876219879612
   2.8749999999999998E-002    -1.9814591873887806
   2.9599999999999987E-002    -2.1303491876447325
   3.0450000000000005E-002    -2.2723140431061086
   3.1299999999999994E-002    -2.4054049899860486
   3.2149999999999984E-002    -2.5276488415448934
   3.3000000000000002E-002    -2.6372241043886744
   3.3849999999999991E-002    -2.7321667760622819
   3.4700000000000009E-002    -2.8106015960240192
   3.5549999999999998E-002    -2.8705902660665923
   3.6399999999999988E-002    -2.9105950307410500
   3.7250000000000005E-002    -2.9290681751303764
   3.8099999999999995E-002    -2.9244003608313283
   3.8949999999999985E-002    -2.8955652964345422
   3.9800000000000002E-002    -2.8414654459498592
   4.0649999999999992E-002    -2.7613047239108384
   4.1500000000000009E-002    -2.6546148385796728
   4.2349999999999999E-002    -2.5210610135810945
   4.3199999999999988E-002    -2.3606202626954524
   4.4050000000000006E-002    -2.1734305576932669
   4.4899999999999995E-002    -1.9602157379901206
   4.5749999999999985E-002    -1.7217527753829851
   4.6600000000000003E-002    -1.4592377341617224
   4.7449999999999992E-002    -1.1742216185536947
   4.8299999999999982E-002   -0.86852766436616269
   4.9149999999999999E-002   -0.54428831347136153
   4.9999999999999989E-002   -0.20400001707922102
   5.0850000000000006E-002    0.14975536700340733
   5.1699999999999996E-002    0.51412903454474268
   5.2549999999999986E-002    0.88611848974519103
   5.3400000000000003E-002     1.2626141652677321
   5.4249999999999993E-002     1.6401915517710715
   5.5099999999999982E-002     2.0155185427865301
   5.5950000000000000E-002     2.3848961771067838
   5.6799999999999989E-002     2.7448232784029560
   5.7650000000000007E-002     3.0916603580268909
   5.8499999999999996E-002     3.4219721595973782
   5.9349999999999986E-002     3.7324159358199109
   6.0200000000000004E-002     4.0197492517249982
   6.1049999999999993E-002     4.2810272227616615
   6.1899999999999983E-002     4.5135508186167241
   6.2750000000000000E-002     4.7148427458554494
   6.3599999999999990E-002     4.8824893874971824
   6.4450000000000007E-002     5.0146971285830491
   6.5299999999999997E-002     5.1099275113453437
   6.6149999999999987E-002     5.1669618740253922
   6.7000000000000004E-002     5.1848626324329983
   6.7849999999999994E-002     5.1632562564070472
   6.8699999999999983E-002     5.1023121285238728
   6.9550000000000001E-002     5.0022320249889605
   7.0399999999999990E-002     4.8638786446173929
   7.1249999999999980E-002     4.6886072018217115
   7.2099999999999997E-002     4.4776800265194669
   7.2949999999999987E-002     4.2332580876483732
   7.3800000000000004E-002     3.9574337359694467
   7.4649999999999994E-002     3.6528580632127423
   7.5499999999999984E-002     3.3222575297773087
   7.6350000000000001E-002     2.9686604218631749
   7.7199999999999991E-002     2.5953430489198306
   7.8049999999999981E-002     2.2060411097686266
   7.8899999999999998E-002     1.8041013480694290
   7.9749999999999988E-002     1.3935011158313793
   8.0600000000000005E-002    0.97789921982286476
   8.1449999999999995E-002    0.56105537450539356
   8.2299999999999984E-002    0.14658315956967316
   8.3150000000000002E-002   -0.26209549629818779
   8.3999999999999991E-002   -0.66163087626433681
   8.4849999999999981E-002    -1.0487746157949362
   8.5699999999999998E-002    -1.4203626323388481
   8.6549999999999988E-002    -1.7733454213622404
   8.7400000000000005E-002    -2.1052469878079361
   8.8249999999999995E-002    -2.4135625687034978
   8.9099999999999985E-002    -2.6961308580034524
   8.9950000000000002E-002    -2.9510954477986799
   9.0799999999999992E-002    -3.1772057756434791
   9.1649999999999981E-002    -3.3732130727420815
   9.2499999999999999E-002    -3.5385164292719655
   9.3349999999999989E-002    -3.6727788577296643
   9.4200000000000006E-002    -3.7757406587605509
   9.5049999999999996E-002    -3.8475419123987158
   9.5899999999999985E-002    -3.8885918659510117
   9.6750000000000003E-002    -3.8995731712927930
   9.7599999999999992E-002    -3.8816056357893052
   9.8449999999999982E-002    -3.8357226549646533
   9.9299999999999999E-002    -3.7635461794897780
  0.10014999999999999         -3.6669423137014516
  0.10099999999999998         -3.5477068106206247
  0.10185000000000000         -3.4079286184869146
  0.10269999999999999         -3.2498313750214187
  0.10355000000000000         -3.0755410801406198
  0.10439999999999999         -2.8871620784403791
  0.10524999999999998         -2.6870794374498339
  0.10610000000000000         -2.4773944319773653
  0.10694999999999999         -2.2603823774578360
  0.10779999999999998         -2.0382910968119998
  0.10865000000000000         -1.8133072589798072
  0.10949999999999999         -1.5875666508935282
  0.11035000000000000         -1.3630726679878906
  0.11119999999999999         -1.1417086948275503
  0.11204999999999998        -0.92506722413751230
  0.11290000000000000        -0.71475685886451645
  0.11374999999999999        -0.51206268665292420
  0.11459999999999998        -0.31823940494953423
  0.11545000000000000        -0.13435427292127317
  0.11629999999999999          3.8704823446471595E-002
  0.11715000000000000         0.20013723399346001
  0.11799999999999999         0.34937434467642858
  0.11884999999999998         0.48597198082098886
  0.11970000000000000         0.60962109727587688
  0.12054999999999999         0.72030184106265460
  0.12139999999999998         0.81798508168372230
  0.12225000000000000         0.90278944119732585
  0.12309999999999999         0.97494979670387838
  0.12395000000000000          1.0347966191745728
  0.12479999999999999          1.0827343210498070
  0.12564999999999998          1.1192880484964485
  0.12650000000000000          1.1450257590554878
  0.12734999999999999          1.1605923933445039
  0.12819999999999998          1.1666998270840816
  0.12905000000000000          1.1640584449979294
  0.12989999999999999          1.1534388718749553
  0.13074999999999998          1.1355711655791307
  0.13159999999999999          1.1112217125743131
  0.13245000000000001          1.0810333277929216
  0.13329999999999997          1.0457664151159103
  0.13414999999999999          1.0060851360103780
  0.13500000000000001         0.96267466648333622
  0.13584999999999997         0.91621034730500572
  0.13669999999999999         0.86735484734766477
  0.13755000000000001         0.81671594077111564
  0.13839999999999997         0.76484378072233727
  0.13924999999999998         0.71226283978636618
  0.14010000000000000         0.65943155839847678
  0.14094999999999996         0.60676733795407056
  0.14179999999999998         0.55464498700961606
  0.14265000000000000         0.50347495982103929
  0.14350000000000002         0.45358919319442631
  0.14434999999999998         0.40531412618212848
  0.14520000000000000         0.35895421195335397
  0.14605000000000001         0.31472128498559720
  0.14689999999999998         0.27276508759235940
  0.14774999999999999         0.23316108553019405
  0.14860000000000001         0.19592641737983632
  0.14944999999999997         0.16111688634877039
  0.15029999999999999         0.12874819953421929
  0.15115000000000001          9.8913260820100643E-002
  0.15199999999999997          7.1688506839914803E-002
  0.15284999999999999          4.7160972418169765E-002
  0.15370000000000000          2.5355961200914198E-002
  0.15454999999999997          6.2563729629367248E-003
  0.15539999999999998         -1.0247767774023732E-002
  0.15625000000000000         -2.4351025542848931E-002
  0.15709999999999996         -3.6299100032148438E-002
  0.15794999999999998         -4.6309229572433643E-002
  0.15880000000000000         -5.4601942626164413E-002
  0.15965000000000001         -6.1328380453400319E-002
  0.16049999999999998         -6.6542097820829205E-002
  0.16134999999999999         -7.0295241055717383E-002
  0.16220000000000001         -7.2596840339170576E-002
  0.16304999999999997         -7.3539442932947965E-002
  0.16389999999999999         -7.3251534241782379E-002
  0.16475000000000001         -7.1972307393473600E-002
  0.16559999999999997         -6.9990152107735362E-002
  0.16644999999999999         -6.7579294530416889E-002
  0.16730000000000000         -6.4988899128769845E-002
  0.16814999999999997         -6.2384784286733976E-002
  0.16899999999999998         -5.9831547638117155E-002
  0.16985000000000000         -5.7302669260209431E-002
  0.17069999999999996         -5.4751545496680806E-002
  0.17154999999999998         -5.2115751371946142E-002
  0.17240000000000000         -4.9382426360153761E-002
  0.17325000000000002         -4.6611320236309872E-002
  0.17409999999999998         -4.3902776155741174E-002
  0.17494999999999999         -4.1407482023447004E-002
  0.17580000000000001         -3.9255318341831734E-002
  0.17664999999999997         -3.7501752837866081E-002
  0.17749999999999999         -3.6129040736418545E-002
  0.17835000000000001         -3.5056027356161978E-002
  0.17919999999999997         -3.4140651517615701E-002
  0.18004999999999999         -3.3244315797292187E-002
  0.18090000000000001         -3.2229102243022625E-002
  0.18174999999999997         -3.1046482204211145E-002
  0.18259999999999998         -2.9685717251588761E-002
  0.18345000000000000         -2.8190950339336336E-002
  0.18429999999999996         -2.6628522617909510E-002
  0.18514999999999998         -2.5060365314639291E-002
  0.18600000000000000         -2.3516364089109700E-002
  0.18684999999999996         -2.1992479013065658E-002
  0.18769999999999998         -2.0452978580836782E-002
  0.18855000000000000         -1.8861231883561969E-002
  0.18940000000000001         -1.7179631915267158E-002
  0.19024999999999997         -1.5401843790829562E-002
  0.19109999999999999         -1.3545431252877750E-002
  0.19195000000000001         -1.1652612150635547E-002
  0.19279999999999997         -9.7799608962870054E-003
  0.19364999999999999         -7.9780891360846703E-003
  0.19450000000000001         -6.2927965203991160E-003
  0.19534999999999997         -4.7752545754038969E-003
  0.19619999999999999         -3.4480187668415657E-003
  0.19705000000000000         -2.3500059557904902E-003
  0.19789999999999996         -1.5105816320072618E-003
  0.19874999999999998         -9.5164942205865956E-004
  0.19960000000000000         -6.9643179053761753E-004
  0.20044999999999996         -7.4716993866291660E-004
  0.20129999999999998         -1.0983159886464597E-003
  0.20215000000000000         -1.7183562945694154E-003
  0.20300000000000001         -2.5850389061063657E-003
  0.20384999999999998         -3.6609083173581728E-003
  0.20469999999999999         -4.9239547909113368E-003
  0.20555000000000001         -6.3615850882810816E-003
  0.20639999999999997         -7.9554096441508924E-003
  0.20724999999999999         -9.6799639282698809E-003
  0.20810000000000001         -1.1490094172062008E-002
  0.20894999999999997         -1.3310980375782907E-002
  0.20979999999999999         -1.5045464888479474E-002
  0.21065000000000000         -1.6583749326191905E-002
  0.21149999999999997         -1.7836425448256237E-002
  0.21234999999999998         -1.8741166253915691E-002
  0.21320000000000000         -1.9276343876238899E-002
  0.21404999999999996         -1.9463531743468099E-002
  0.21489999999999998         -1.9353370183749611E-002
  0.21575000000000000         -1.8997085583533711E-002
  0.21659999999999996         -1.8426479253914788E-002
  0.21744999999999998         -1.7649120347347530E-002
  0.21829999999999999         -1.6636814334850248E-002
  0.21915000000000001         -1.5348395673547057E-002
  0.21999999999999997         -1.3747754855711782E-002
  0.22084999999999999         -1.1837375859346258E-002
  0.22170000000000001         -9.6612197607670730E-003
  0.22254999999999997         -7.3171418999447074E-003
  0.22339999999999999         -4.9304311468943386E-003
  0.22425000000000000         -2.6244814256883068E-003
  0.22509999999999997         -4.9952270352987538E-004
  0.22594999999999998          1.3943524510922226E-003
  0.22680000000000000          3.0564358314077952E-003
  0.22764999999999996          4.5225468799251741E-003
  0.22849999999999998          5.8403676188417356E-003
  0.22935000000000000          7.0400443697970745E-003
  0.23019999999999996          8.1159964471494601E-003
  0.23104999999999998          9.0237952614201523E-003
  0.23190000000000000          9.6857000559434341E-003
  0.23275000000000001          1.0027106956461227E-002
  0.23359999999999997          9.9947647839881536E-003
  0.23444999999999999          9.5867536143458554E-003
  0.23530000000000001          8.8529510272873958E-003
  0.23614999999999997          7.8860715590812463E-003
  0.23699999999999999          6.8001105277847914E-003
  0.23785000000000001          5.7024915627478627E-003
  0.23869999999999997          4.6757707647865623E-003
  0.23954999999999999          3.7541371152986112E-003
  0.24040000000000000          2.9441690640354214E-003
  0.24124999999999996          2.2270848990994861E-003
  0.24209999999999998          1.5834586506767423E-003
  0.24295000000000000          1.0108388750920522E-003
  0.24379999999999996          5.2716887540293206E-004
  0.24464999999999998          1.6993214413630833E-004
  0.24550000000000000         -1.6854549763755256E-005
  0.24634999999999996         -3.9400009293019027E-007
  0.24719999999999998          2.3365555751513772E-004
  0.24804999999999999          6.6915138821675767E-004
  0.24890000000000001          1.2691033016004115E-003
  0.24974999999999997          1.9812702781572085E-003
  0.25059999999999999          2.7537169080081750E-003
  0.25145000000000001          3.5398263106946035E-003
  0.25229999999999997          4.3040722429283900E-003
  0.25314999999999999          5.0153804877612063E-003
  0.25400000000000000          5.6449424198203669E-003
  0.25484999999999997          6.1582287508079306E-003
  0.25569999999999998          6.5178656242550316E-003
  0.25655000000000000          6.6823112913514541E-003
  0.25739999999999996          6.6169762731305903E-003
  0.25824999999999998          6.2992725925655954E-003
  0.25910000000000000          5.7229003041945753E-003
  0.25994999999999996          4.8979800577371776E-003
  0.26079999999999998          3.8435862991967849E-003
  0.26164999999999999          2.5783753651183435E-003
  0.26249999999999996          1.1163437589172731E-003
  0.26334999999999997         -5.3271332275876555E-004
  0.26419999999999999         -2.3580834360790899E-003
  0.26505000000000001         -4.3426039581276827E-003
  0.26589999999999997         -6.4441425245545265E-003
  0.26674999999999999         -8.6024584233242544E-003
  0.26760000000000000         -1.0733630134716250E-002
  0.26844999999999997         -1.2745570672800388E-002
  0.26929999999999998         -1.4554505037014796E-002
  0.27015000000000000         -1.6094947278929995E-002
  0.27099999999999996         -1.7336835143075727E-002
  0.27184999999999998         -1.8277034336315931E-002
  0.27270000000000000         -1.8930310230981878E-002
  0.27354999999999996         -1.9311925051841098E-002
  0.27439999999999998         -1.9427264971492882E-002
  0.27524999999999999         -1.9256595947228550E-002
  0.27609999999999996         -1.8763609585600277E-002
  0.27694999999999997         -1.7902775955875524E-002
  0.27779999999999999         -1.6642895807718060E-002
  0.27865000000000001         -1.4984423095715581E-002
  0.27949999999999997         -1.2965095060679672E-002
  0.28034999999999999         -1.0663581817457159E-002
  0.28120000000000001         -8.1786541411401313E-003
  0.28204999999999997         -5.6144399799921037E-003
  0.28289999999999998         -3.0551310049167935E-003
  0.28375000000000000         -5.5460335998382148E-004
  0.28459999999999996          1.8672406156689839E-003
  0.28544999999999998          4.2094315372777445E-003
  0.28630000000000000          6.4757398072547660E-003
  0.28714999999999996          8.6515422484561878E-003
  0.28799999999999998          1.0694747582004342E-002
  0.28885000000000000          1.2538319311563980E-002
  0.28969999999999996          1.4097502208912625E-002
  0.29054999999999997          1.5295931314153613E-002
  0.29139999999999999          1.6085335875014928E-002
  0.29224999999999995          1.6453773961481649E-002
  0.29309999999999997          1.6436759828271679E-002
  0.29394999999999999          1.6098877077169425E-002
  0.29480000000000001          1.5521600136664782E-002
  0.29564999999999997          1.4778792392917102E-002
  0.29649999999999999          1.3922711550621301E-002
  0.29735000000000000          1.2978102240941088E-002
  0.29819999999999997          1.1946898391911036E-002
  0.29904999999999998          1.0820347228240308E-002
  0.29990000000000000          9.5964764672913528E-003
  0.30074999999999996          8.2907842048122963E-003
  0.30159999999999998          6.9403444305636492E-003
  0.30245000000000000          5.6036559437435216E-003
  0.30329999999999996          4.3451898207472923E-003
  0.30414999999999998          3.2231980050441405E-003
  0.30499999999999999          2.2779075869608532E-003
  0.30584999999999996          1.5276631844720623E-003
  0.30669999999999997          9.6639938810045515E-004
  0.30754999999999999          5.7159657996083376E-004
  0.30840000000000001          3.1368685184058421E-004
  0.30924999999999997          1.6316809792712232E-004
  0.31009999999999999          9.5412817665361567E-005
  0.31095000000000000          9.3134150377964617E-005
  0.31179999999999997          1.4032425281757197E-004
  0.31264999999999998          2.2149423009336624E-004
  0.31350000000000000          3.1509336816090802E-004
  0.31434999999999996          3.9494806184693567E-004
  0.31519999999999998          4.2874632307798231E-004
  0.31605000000000000          3.8302994491934579E-004
  0.31689999999999996          2.2422849518977193E-004
  0.31774999999999998         -7.6546235145441539E-005
  0.31859999999999999         -5.4140550667268732E-004
  0.31944999999999996         -1.1869506370279705E-003
  0.32029999999999997         -2.0171761043566890E-003
  0.32114999999999999         -3.0295681038385270E-003
  0.32199999999999995         -4.2070329851756402E-003
  0.32284999999999997         -5.5200944750646106E-003
  0.32369999999999999         -6.9283390926748283E-003
  0.32455000000000001         -8.3822993851894820E-003
  0.32539999999999997         -9.8311077361818832E-003
  0.32624999999999998         -1.1227756605824158E-002
  0.32710000000000000         -1.2535056646086061E-002
  0.32794999999999996         -1.3726901161420380E-002
  0.32879999999999998         -1.4788131524767866E-002
  0.32965000000000000         -1.5705919337046872E-002
  0.33049999999999996         -1.6463687832759571E-002
  0.33134999999999998         -1.7033465621198042E-002
  0.33220000000000000         -1.7375073821477814E-002
  0.33304999999999996         -1.7440309089842232E-002
  0.33389999999999997         -1.7179979072088316E-002
  0.33474999999999999         -1.6558657831479924E-002
  0.33559999999999995         -1.5561508344608149E-002
  0.33644999999999997         -1.4203071481253630E-002
  0.33729999999999999         -1.2525049234890749E-002
  0.33815000000000001         -1.0585485193028632E-002
  0.33899999999999997         -8.4500587542801295E-003
  0.33984999999999999         -6.1756417762675094E-003
  0.34070000000000000         -3.8028567813996931E-003
  0.34154999999999996         -1.3539223766170709E-003
  0.34239999999999998          1.1602397334683696E-003
  0.34325000000000000          3.7286259245535758E-003
  0.34409999999999996          6.3262872090952618E-003
  0.34494999999999998          8.9062833842161113E-003
  0.34580000000000000          1.1396870187929439E-002
  0.34664999999999996          1.3708531529578707E-002
  0.34749999999999998          1.5747387306031757E-002
  0.34834999999999999          1.7431006444742051E-002
  0.34919999999999995          1.8704970183909798E-002
  0.35004999999999997          1.9549542724589534E-002
  0.35089999999999999          1.9981356083454527E-002
  0.35174999999999995          2.0043589109247490E-002
  0.35259999999999997          1.9793738628203404E-002
  0.35344999999999999          1.9287392119519416E-002
  0.35430000000000000          1.8567383777421318E-002
  0.35514999999999997          1.7655737881618946E-002
  0.35599999999999998          1.6557482457796771E-002
  0.35685000000000000          1.5266660545328088E-002
  0.35769999999999996          1.3776734092807816E-002