 -0.12000000000000000          0.0000000000000000
 -0.11914999999999999         -3.7772151278021207E-013
 -0.11830000000000000         -9.1503630180651156E-013
 -0.11745000000000000         -1.3192814859007699E-012
 -0.11660000000000000         -1.5703545303223061E-012
 -0.11574999999999999         -2.1826932257436238E-012
 -0.11490000000000000         -4.1679458092213806E-012
 -0.11405000000000000         -8.6199361631353651E-012
 -0.11320000000000000         -1.6054301860501558E-011
 -0.11234999999999999         -2.5824843754391942E-011
 -0.11150000000000000         -3.6003179260039798E-011
 -0.11065000000000000         -4.3982920066571035E-011
 -0.10979999999999999         -4.7766639508970957E-011
 -0.10894999999999999         -4.7513721032903844E-011
 -0.10810000000000000         -4.6633393121238258E-011
 -0.10725000000000000         -5.1665498993457680E-011
 -0.10639999999999999         -7.0496717944396164E-011
 -0.10554999999999999         -1.0907442287112378E-010
 -0.10470000000000000         -1.6752002967539984E-010
 -0.10385000000000000         -2.3711961133701372E-010
 -0.10299999999999999         -2.9979117916148633E-010
 -0.10214999999999999         -3.3112231020785637E-010
 -0.10130000000000000         -3.0698746489444955E-010
 -0.10045000000000000         -2.1238427284498012E-010
  -9.9599999999999994E-002    -4.9947171261507950E-011
  -9.8750000000000004E-002     1.5489496918418742E-010
  -9.7900000000000001E-002     3.5463297095741714E-010
  -9.7049999999999997E-002     4.8724815878824784E-010
  -9.6199999999999994E-002     4.8947840011111409E-010
  -9.5349999999999990E-002     3.1254112058066741E-010
  -9.4500000000000001E-002    -6.4165179780339532E-011
  -9.3649999999999997E-002    -6.2571292139204414E-010
  -9.2799999999999994E-002    -1.3233303499611427E-009
  -9.1950000000000004E-002    -2.0850764390012529E-009
  -9.1100000000000000E-002    -2.8325774964868032E-009
  -9.0249999999999997E-002    -3.4988063498429423E-009
  -8.9399999999999993E-002    -4.0415377021704597E-009
  -8.8549999999999990E-002    -4.4486053584554582E-009
  -8.7700000000000000E-002    -4.7340532482517976E-009
  -8.6849999999999997E-002    -4.9277287772764080E-009
  -8.5999999999999993E-002    -5.0632937515992815E-009
  -8.5150000000000003E-002    -5.1702430340382513E-009
  -8.4300000000000000E-002    -5.2738291892703226E-009
  -8.3449999999999996E-002    -5.4032889639239287E-009
  -8.2600000000000007E-002    -5.6046348307517882E-009
  -8.1749999999999989E-002    -5.9516418507106525E-009
  -8.0900000000000000E-002    -6.5480433266891039E-009
  -8.0049999999999996E-002    -7.5163454397578341E-009
  -7.9199999999999993E-002    -8.9739672273797189E-009
  -7.8350000000000003E-002    -1.1002304877449780E-008
  -7.7499999999999999E-002    -1.3618919955412886E-008
  -7.6649999999999996E-002    -1.6763812296898902E-008
  -7.5800000000000006E-002    -2.0307273863966455E-008
  -7.4949999999999989E-002    -2.4081515503466237E-008
  -7.4099999999999999E-002    -2.7928342814468455E-008
  -7.3249999999999996E-002    -3.1751215721476635E-008
  -7.2399999999999992E-002    -3.5554695873820664E-008
  -7.1550000000000002E-002    -3.9458590781992680E-008
  -7.0699999999999999E-002    -4.3679834233610110E-008
  -6.9849999999999995E-002    -4.8486313500296250E-008
  -6.9000000000000006E-002    -5.4136100230196048E-008
  -6.8149999999999988E-002    -6.0818594347231224E-008
  -6.7299999999999999E-002    -6.8619613470805014E-008
  -6.6449999999999995E-002    -7.7519326383761577E-008
  -6.5599999999999992E-002    -8.7426482323607382E-008
  -6.4750000000000002E-002    -9.8237431113104531E-008
  -6.3899999999999998E-002    -1.0990185334079380E-007
  -6.3049999999999995E-002    -1.2247323944968239E-007
  -6.2199999999999998E-002    -1.3612464491314312E-007
  -6.1350000000000002E-002    -1.5112776100999481E-007
  -6.0499999999999998E-002    -1.6779489848620202E-007
  -5.9650000000000002E-002    -1.8640872462407325E-007
  -5.8799999999999998E-002    -2.0715473407702221E-007
  -5.7950000000000002E-002    -2.3008431767253092E-007
  -5.7099999999999998E-002    -2.5511950217656372E-007
  -5.6249999999999994E-002    -2.8209843314365419E-007
  -5.5400000000000005E-002    -3.1084366655200233E-007
  -5.4550000000000001E-002    -3.4124425036899975E-007
  -5.3699999999999998E-002    -3.7331049617587480E-007
  -5.2849999999999994E-002    -4.0719030723293383E-007
  -5.2000000000000005E-002    -4.4315306620392916E-007
  -5.1150000000000001E-002    -4.8151907580048956E-007
  -5.0299999999999997E-002    -5.2257307910574163E-007
  -4.9449999999999994E-002    -5.6650426750983836E-007
  -4.8600000000000004E-002    -6.1334250862973316E-007
  -4.7750000000000001E-002    -6.6295569620625089E-007
  -4.6899999999999997E-002    -7.1508143573068179E-007
  -4.6049999999999994E-002    -7.6940131075596132E-007
  -4.5200000000000004E-002    -8.2557788067131723E-007
  -4.4350000000000001E-002    -8.8332589764120468E-007
  -4.3499999999999997E-002    -9.4242254167430090E-007
  -4.2649999999999993E-002    -1.0027002524391775E-006
  -4.1800000000000004E-002    -1.0639784596358221E-006
  -4.0950000000000000E-002    -1.1260068496774464E-006
  -4.0099999999999997E-002    -1.1884007206221063E-006
  -3.9249999999999993E-002    -1.2506305068085555E-006
  -3.8400000000000004E-002    -1.3120040617791573E-006
  -3.7550000000000000E-002    -1.3717002610366595E-006
  -3.6699999999999997E-002    -1.4288766054252204E-006
  -3.5850000000000007E-002    -1.4826876024719413E-006
  -3.5000000000000003E-002    -1.5323448299608382E-006
  -3.4150000000000000E-002    -1.5771293003934719E-006
  -3.3299999999999996E-002    -1.6163614011047377E-006
  -3.2450000000000007E-002    -1.6493554942326642E-006
  -3.1600000000000003E-002    -1.6753397160908836E-006
  -3.0750000000000000E-002    -1.6933958382106038E-006
  -2.9899999999999996E-002    -1.7024655235059961E-006
  -2.9050000000000006E-002    -1.7013699189554251E-006
  -2.8200000000000003E-002    -1.6888192263931824E-006
  -2.7349999999999999E-002    -1.6635701927587492E-006
  -2.6499999999999996E-002    -1.6244141486230429E-006
  -2.5650000000000006E-002    -1.5703147664635960E-006
  -2.4800000000000003E-002    -1.5004187085300323E-006
  -2.3949999999999999E-002    -1.4141209114596101E-006
  -2.3099999999999996E-002    -1.3109762110819411E-006
  -2.2250000000000006E-002    -1.1907323717287771E-006
  -2.1400000000000002E-002    -1.0530060032098361E-006
  -2.0549999999999999E-002    -8.9773335337974358E-007
  -1.9699999999999995E-002    -7.2473026961120249E-007
  -1.8850000000000006E-002    -5.3398056673389593E-007
  -1.8000000000000002E-002    -3.2567358900419612E-007
  -1.7149999999999999E-002    -1.0002482179033683E-007
  -1.6299999999999995E-002     1.4217235641936197E-007
  -1.5450000000000005E-002     3.9992456364905724E-007
  -1.4600000000000002E-002     6.7191815381925405E-007
  -1.3749999999999998E-002     9.5639021162663924E-007
  -1.2899999999999995E-002     1.2514743576646700E-006
  -1.2050000000000005E-002     1.5550257980892478E-006
  -1.1200000000000002E-002     1.8646575023671188E-006
  -1.0349999999999998E-002     2.1779173927954219E-006
  -9.5000000000000084E-003     2.4920569959658236E-006
  -8.6500000000000049E-003     2.8042688745431624E-006
  -7.8000000000000014E-003     3.1115503087282685E-006
  -6.9499999999999978E-003     3.4105611128616743E-006
  -6.1000000000000082E-003     3.6979709471151132E-006
  -5.2500000000000047E-003     3.9701543045631854E-006
  -4.4000000000000011E-003     4.2234981502458832E-006
  -3.5499999999999976E-003     4.4543420535802996E-006
  -2.7000000000000079E-003     4.6592303433836228E-006
  -1.8500000000000044E-003     4.8348176030987203E-006
  -1.0000000000000009E-003     4.9777152333613945E-006
  -1.4999999999999736E-004     5.0850043059021005E-006
   6.9999999999999230E-004     5.1538991137934441E-006
   1.5499999999999958E-003     5.1819088491492359E-006
   2.3999999999999994E-003     5.1668970373136696E-006
   3.2500000000000029E-003     5.1077198946651036E-006
   4.0999999999999925E-003     5.0030598722399099E-006
   4.9499999999999961E-003     4.8522909508936474E-006
   5.7999999999999996E-003     4.6552168949384198E-006
   6.6499999999999893E-003     4.4125742056864078E-006
   7.5000000000000067E-003     4.1251209336749990E-006
   8.3499999999999963E-003     3.7946408351891789E-006
   9.1999999999999860E-003     3.4237326378864992E-006
   1.0050000000000003E-002     3.0149502177358574E-006
   1.0899999999999993E-002     2.5717356820810974E-006
   1.1750000000000010E-002     2.0979594495716751E-006
   1.2600000000000000E-002     1.5980496117798610E-006
   1.3449999999999990E-002     1.0772950888076982E-006
   1.4300000000000007E-002     5.4113108176531563E-007
   1.5149999999999997E-002    -4.2667102392163463E-009
   1.5999999999999986E-002    -5.5292698242487943E-007
   1.6850000000000004E-002    -1.0983280713516017E-006
   1.7699999999999994E-002    -1.6338159056724814E-006
   1.8549999999999983E-002    -2.1532611461395077E-006
   1.9400000000000001E-002    -2.6501833678907398E-006
   2.0249999999999990E-002    -3.1185107320339282E-006
   2.1100000000000008E-002    -3.5522018822887886E-006
   2.1949999999999997E-002    -3.9455424377094386E-006
   2.2799999999999987E-002    -4.2932703991104861E-006
   2.3650000000000004E-002    -4.5901305293705036E-006
   2.4499999999999994E-002    -4.8318554479811506E-006
   2.5349999999999984E-002    -5.0144818274219108E-006
   2.6200000000000001E-002    -5.1351676970969561E-006
   2.7049999999999991E-002    -5.1916863017601443E-006
   2.7900000000000008E-002    -5.1828500792615729E-006
   2.8749999999999998E-002    -5.1087069177794739E-006
   2.9599999999999987E-002    -4.9700826304739776E-006
   3.0450000000000005E-002    -4.7685550475039089E-006
   3.1299999999999994E-002    -4.5069457755367442E-006
   3.2149999999999984E-002    -4.1884050463753545E-006
   3.3000000000000002E-002    -3.8171175300995045E-006
   3.3849999999999991E-002    -3.3979625762564868E-006
   3.4700000000000009E-002    -2.9361805854138604E-006
   3.5549999999999998E-002    -2.4379123344896689E-006
   3.6399999999999988E-002    -1.9097161235875485E-006
   3.7250000000000005E-002    -1.3592087540804807E-006
   3.8099999999999995E-002    -7.9368447230906974E-007
   3.8949999999999985E-002    -2.2109344207301850E-007
   3.9800000000000002E-002     3.5028865662541545E-007
   4.0649999999999992E-002     9.1222303996271707E-007
   4.1500000000000009E-002     1.4568219845420040E-006
   4.2349999999999999E-002     1.9768438865893202E-006
   4.3199999999999988E-002     2.4651993664529299E-006
   4.4050000000000006E-002     2.9151709779163428E-006
   4.4899999999999995E-002     3.3209288319460375E-006
   4.5749999999999985E-002     3.6769202724698383E-006
   4.6600000000000003E-002     3.9782597107588545E-006
   4.7449999999999992E-002     4.2217432787970574E-006
   4.8299999999999982E-002     4.4039372253837730E-006
   4.9149999999999999E-002     4.5222997547209178E-006
   4.9999999999999989E-002     4.5761080618035154E-006
   5.0850000000000006E-002     4.5646631223713574E-006
   5.1699999999999996E-002     4.4886779741131922E-006
   5.2549999999999986E-002     4.3500491824288856E-006
   5.3400000000000003E-002     4.1510231055259778E-006
   5.4249999999999993E-002     3.8947059955690740E-006
   5.5099999999999982E-002     3.5862908204227728E-006
   5.5950000000000000E-002     3.2308019956238095E-006
   5.6799999999999989E-002     2.8340452209154660E-006
   5.7650000000000007E-002     2.4018724670018152E-006
   5.8499999999999996E-002     1.9412367943031061E-006
   5.9349999999999986E-002     1.4589442198065009E-006
   6.0200000000000004E-002     9.6109124174236497E-007
   6.1049999999999993E-002     4.5505787689093739E-007
   6.1899999999999983E-002    -5.1991225725387503E-008
   6.2750000000000000E-002    -5.5373856607832749E-007
   6.3599999999999990E-002    -1.0433278862771301E-006
   6.4450000000000007E-002    -1.5145647784446463E-006
   6.5299999999999997E-002    -1.9610776829315938E-006
   6.6149999999999987E-002    -2.3770885005665667E-006
   6.7000000000000004E-002    -2.7576422223347514E-006
   6.7849999999999994E-002    -3.0979036555341778E-006
   6.8699999999999983E-002    -3.3945374562296829E-006
   6.9550000000000001E-002    -3.6445147282554843E-006
   7.0399999999999990E-002    -3.8460732100882790E-006
   7.1249999999999980E-002    -3.9977558112359198E-006
   7.2099999999999997E-002    -4.0994308045905349E-006
   7.2949999999999987E-002    -4.1511175742160946E-006
   7.3800000000000004E-002    -4.1536796383840445E-006
   7.4649999999999994E-002    -4.1085121434857287E-006
   7.5499999999999984E-002    -4.0177478441752833E-006
   7.6350000000000001E-002    -3.8838984807630358E-006
   7.7199999999999991E-002    -3.7100670067690790E-006
   7.8049999999999981E-002    -3.4997937394430543E-006
   7.8899999999999998E-002    -3.2570839650543540E-006
   7.9749999999999988E-002    -2.9862759278583854E-006
   8.0600000000000005E-002    -2.6920364526422152E-006
   8.1449999999999995E-002    -2.3791956094035545E-006
   8.2299999999999984E-002    -2.0527449264797878E-006
   8.3150000000000002E-002    -1.7176044712985140E-006
   8.3999999999999991E-002    -1.3786077771597063E-006
   8.4849999999999981E-002    -1.0402892305758792E-006
   8.5699999999999998E-002    -7.0688443275640870E-007
   8.6549999999999988E-002    -3.8241562080494160E-007
   8.7400000000000005E-002    -7.0507972945039863E-008
   8.8249999999999995E-002     2.2550096255626612E-007
   8.9099999999999985E-002     5.0265485557001897E-007
   8.9950000000000002E-002     7.5823683061996859E-007
   9.0799999999999992E-002     9.8983183312438848E-007
   9.1649999999999981E-002     1.1957831200211303E-006
   9.2499999999999999E-002     1.3744633838778154E-006
   9.3349999999999989E-002     1.5250101967407624E-006
   9.4200000000000006E-002     1.6471333550347489E-006
   9.5049999999999996E-002     1.7408832301525914E-006
   9.5899999999999985E-002     1.8068158141682984E-006
   9.6750000000000003E-002     1.8458738930287204E-006
   9.7599999999999992E-002     1.8592261262961393E-006
   9.8449999999999982E-002     1.8484743541723705E-006
   9.9299999999999999E-002     1.8153204741696630E-006
  0.10014999999999999          1.7615711737727256E-006
  0.10099999999999998          1.6892752170507697E-006
  0.10185000000000000          1.6005863704180886E-006
  0.10269999999999999          1.4979156141254731E-006
  0.10355000000000000          1.3835848879760984E-006
  0.10439999999999999          1.2601497986998445E-006
  0.10524999999999998          1.1299055187719273E-006
  0.10610000000000000          9.9523561601607270E-007
  0.10694999999999999          8.5823753358523898E-007
  0.10779999999999998          7.2118220055170886E-007
  0.10865000000000000          5.8608909079694758E-007
  0.10949999999999999          4.5479683010625140E-007
  0.11035000000000000          3.2918889776604148E-007
  0.11119999999999999          2.1089405146515607E-007
  0.11204999999999998          1.0114350451457201E-007
  0.11290000000000000          1.1408541500596123E-009
  0.11374999999999999         -8.8332912379123053E-008
  0.11459999999999998         -1.6670634421050549E-007
  0.11545000000000000         -2.3378343550504857E-007
  0.11629999999999999         -2.8954933117154906E-007
  0.11715000000000000         -3.3409769373228529E-007
  0.11799999999999999         -3.6766907424897913E-007
  0.11884999999999998         -3.9049595351422390E-007
  0.11970000000000000         -4.0306145022552260E-007
  0.12054999999999999         -4.0575432500117527E-007
  0.12139999999999998         -3.9915816763153083E-007
  0.12225000000000000         -3.8405222786196040E-007
  0.12309999999999999         -3.6145739075595845E-007
  0.12395000000000000         -3.3240472444015746E-007
  0.12479999999999999         -2.9821153526878354E-007
  0.12564999999999998         -2.6010578017987746E-007
  0.12650000000000000         -2.1915192978615442E-007
  0.12734999999999999         -1.7640265308309923E-007
  0.12819999999999998         -1.3273427491725721E-007
  0.12905000000000000         -8.8966850529047293E-008
  0.12989999999999999         -4.5823664011689928E-008
  0.13074999999999998         -4.0170040165935245E-009
  0.13159999999999999          3.5655863707969213E-008
  0.13245000000000001          7.2405735390513937E-008
  0.13329999999999997          1.0541255407749260E-007
  0.13414999999999999          1.3391860360055984E-007
  0.13500000000000001          1.5730777308735037E-007
  0.13584999999999997          1.7513181134200936E-007
  0.13669999999999999          1.8712164511640576E-007
  0.13755000000000001          1.9321728999355360E-007
  0.13839999999999997          1.9356407200597544E-007
  0.13924999999999998          1.8837723858608590E-007
  0.14010000000000000          1.7798213587006676E-007
  0.14094999999999996          1.6273897605288591E-007
  0.14179999999999998          1.4302252613288599E-007
  0.14265000000000000          1.1927595497868170E-007
  0.14350000000000002          9.1950808541744689E-008
  0.14434999999999998          6.1503463160288892E-008
  0.14520000000000000          2.8470651809897562E-008
  0.14605000000000001         -6.5607756728062964E-009
  0.14689999999999998         -4.2953535260801189E-008
  0.14774999999999999         -8.0056456306201086E-008
  0.14860000000000001         -1.1723032184266323E-007
  0.14944999999999997         -1.5379650445520258E-007
  0.15029999999999999         -1.8907517638604013E-007
  0.15115000000000001         -2.2244686280612219E-007
  0.15199999999999997         -2.5332144686376545E-007
  0.15284999999999999         -2.8116145747419912E-007
  0.15370000000000000         -3.0552145789189530E-007
  0.15454999999999997         -3.2599545613851293E-007
  0.15539999999999998         -3.4226533173783707E-007
  0.15625000000000000         -3.5405199494478156E-007
  0.15709999999999996         -3.6116930530100096E-007
  0.15794999999999998         -3.6341097602464473E-007
  0.15880000000000000         -3.6064829513236139E-007
  0.15965000000000001         -3.5278340418074029E-007
  0.16049999999999998         -3.3981024759498630E-007
  0.16134999999999999         -3.2182018488867863E-007
  0.16220000000000001         -2.9901148623798859E-007
  0.16304999999999997         -2.7176048670957751E-007
  0.16389999999999999         -2.4051760359168076E-007
  0.16475000000000001         -2.0583883835770108E-007
  0.16559999999999997         -1.6831419311579615E-007
  0.16644999999999999         -1.2850967668100281E-007
  0.16730000000000000         -8.6962126759672975E-008
  0.16814999999999997         -4.4137654999146244E-008
  0.16899999999999998         -4.7829335832195255E-010
  0.16985000000000000          4.3576532838597945E-008
  0.17069999999999996          8.7534074609035667E-008
  0.17154999999999998          1.3081380501086757E-007
  0.17240000000000000          1.7279664278999439E-007
  0.17325000000000002          2.1278767939639632E-007
  0.17409999999999998          2.5007726138796644E-007
  0.17494999999999999          2.8403943852708014E-007
  0.17580000000000001          3.1411415992937678E-007
  0.17664999999999997          3.3987670976610056E-007
  0.17749999999999999          3.6103333066785473E-007
  0.17835000000000001          3.7740440496502354E-007
  0.17919999999999997          3.8886668514286561E-007
  0.18004999999999999          3.9535338934319188E-007
  0.18090000000000001          3.9682265054154041E-007
  0.18174999999999997          3.9326137088553320E-007
  0.18259999999999998          3.8469503941694646E-007
  0.18345000000000000          3.7120844118544660E-007
  0.18429999999999996          3.5296437101487345E-007
  0.18514999999999998          3.3019626789260410E-007
  0.18600000000000000          3.0319504587328487E-007
  0.18684999999999996          2.7229734197611538E-007
  0.18769999999999998          2.3786581678155469E-007
  0.18855000000000000          2.0027618315101707E-007
  0.18940000000000001          1.5993129370078096E-007
  0.19024999999999997          1.1725857211636998E-007
  0.19109999999999999          7.2759592120156759E-008
  0.19195000000000001          2.6996518364881179E-008
  0.19279999999999997         -1.9378025907878779E-008
  0.19364999999999999         -6.5643489012609132E-008
  0.19450000000000001         -1.1108267630652439E-007
  0.19534999999999997         -1.5497749538335321E-007
  0.19619999999999999         -1.9668007960800319E-007
  0.19705000000000000         -2.3563008438722835E-007
  0.19789999999999996         -2.7136004183035847E-007
  0.19874999999999998         -3.0347358538157753E-007
  0.19960000000000000         -3.3164251734759331E-007
  0.20044999999999996         -3.5556352513074522E-007
  0.20129999999999998         -3.7496554096673024E-007
  0.20215000000000000         -3.8958560444267712E-007
  0.20300000000000001         -3.9920654968228394E-007
  0.20384999999999998         -4.0368151414265815E-007
  0.20469999999999999         -4.0294014145934079E-007
  0.20555000000000001         -3.9700115820269264E-007
  0.20639999999999997         -3.8597854639405851E-007
  0.20724999999999999         -3.7004798660337943E-007
  0.20810000000000001         -3.4943748048894638E-007
  0.20894999999999997         -3.2441987298535989E-007
  0.20979999999999999         -2.9527822241073315E-007
  0.21065000000000000         -2.6234577231849951E-007
  0.21149999999999997         -2.2599648456463858E-007
  0.21234999999999998         -1.8668097408476276E-007
  0.21320000000000000         -1.4489321951519778E-007
  0.21404999999999996         -1.0119708473902256E-007
  0.21489999999999998         -5.6204666975731125E-008
  0.21575000000000000         -1.0530385619013011E-008
  0.21659999999999996          3.5209677731274647E-008
  0.21744999999999998          8.0432118800788025E-008
  0.21829999999999999          1.2458287925528714E-007
  0.21915000000000001          1.6713119970075970E-007
  0.21999999999999997          2.0756352780838370E-007
  0.22084999999999999          2.4537446818903222E-007
  0.22170000000000001          2.8006956595107845E-007
  0.22254999999999997          3.1118258394867453E-007
  0.22339999999999999          3.3829565983466074E-007
  0.22425000000000000          3.6106759209651410E-007
  0.22509999999999997          3.7924024134574538E-007
  0.22594999999999998          3.9265199992649444E-007
  0.22680000000000000          4.0122055603646995E-007
  0.22764999999999996          4.0491219252973684E-007
  0.22849999999999998          4.0372568136283634E-007
  0.22935000000000000          3.9767096598383421E-007
  0.23019999999999996          3.8677229448988227E-007
  0.23104999999999998          3.7107889573186206E-007
  0.23190000000000000          3.5070401264677491E-007
  0.23275000000000001          3.2583645509105331E-007
  0.23359999999999997          2.9677770119806273E-007
  0.23444999999999999          2.6392937809665856E-007
  0.23530000000000001          2.2778468405999938E-007
  0.23614999999999997          1.8888110783417602E-007
  0.23699999999999999          1.4777704298896595E-007
  0.23785000000000001          1.0500524576345780E-007
  0.23869999999999997          6.1062745974722883E-008
  0.23954999999999999          1.6414102810425060E-008
  0.24040000000000000         -2.8490662282863706E-008
  0.24124999999999996         -7.3189430408907252E-008
  0.24209999999999998         -1.1717871392846133E-007
  0.24295000000000000         -1.5991534082524446E-007
  0.24379999999999996         -2.0080966706461900E-007
  0.24464999999999998         -2.3926689816773039E-007
  0.24550000000000000         -2.7471147610688985E-007
  0.24634999999999996         -3.0661885779037805E-007
  0.24719999999999998         -3.3454380465882954E-007
  0.24804999999999999         -3.5813853139227416E-007
  0.24890000000000001         -3.7714723519630136E-007
  0.24974999999999997         -3.9140478303377132E-007
  0.25059999999999999         -4.0081359365453503E-007
  0.25145000000000001         -4.0532924557217314E-007
  0.25229999999999997         -4.0494894850930231E-007
  0.25314999999999999         -3.9970378262266087E-007
  0.25400000000000000         -3.8966212292055819E-007
  0.25484999999999997         -3.7492831855726490E-007
  0.25569999999999998         -3.5565343503645863E-007
  0.25655000000000000         -3.3203621287591817E-007
  0.25739999999999996         -3.0433980203927121E-007
  0.25824999999999998         -2.7288986925376372E-007
  0.25910000000000000         -2.3808720493588899E-007
  0.25994999999999996         -2.0040258989154256E-007
  0.26079999999999998         -1.6036620925785315E-007
  0.26164999999999999         -1.1855195653633289E-007
  0.26249999999999996         -7.5546458907649074E-008
  0.26334999999999997         -3.1916775048473020E-008
  0.26419999999999999          1.1806906050270806E-008
  0.26505000000000001          5.5148681374876209E-008
  0.26589999999999997          9.7684903880252372E-008
  0.26674999999999999          1.3902056644920081E-007
  0.26760000000000000          1.7876210529282954E-007
  0.26844999999999997          2.1648872439148812E-007
  0.26929999999999998          2.5174162939194828E-007
  0.27015000000000000          2.8402947022354218E-007
  0.27099999999999996          3.1285361887765684E-007
  0.27184999999999998          3.3775887153686881E-007
  0.27270000000000000          3.5838140769678987E-007
  0.27354999999999996          3.7447974779394170E-007
  0.27439999999999998          3.8595388564349511E-007
  0.27524999999999999          3.9281886164441705E-007
  0.27609999999999996          3.9516175262250304E-007
  0.27694999999999997          3.9308343615789339E-007
  0.27779999999999999          3.8666567671878670E-007
  0.27865000000000001          3.7593493392941495E-007
  0.27949999999999997          3.6088686345387726E-007
  0.28034999999999999          3.4152489819037662E-007
  0.28120000000000001          3.1792197039114147E-007
  0.28204999999999997          2.9027748944289990E-007
  0.28289999999999998          2.5895010903668367E-007
  0.28375000000000000          2.2444507245187693E-007
  0.28459999999999996          1.8737786443348307E-007
  0.28544999999999998          1.4839756729333431E-007
  0.28630000000000000          1.0811030569493585E-007
  0.28714999999999996          6.7032096188177109E-008
  0.28799999999999998          2.5561319932704750E-008
  0.28885000000000000         -1.5994513982030523E-008
  0.28969999999999996         -5.7368130507111548E-008
  0.29054999999999997         -9.8264714651502560E-008
  0.29139999999999999         -1.3830819958832717E-007
  0.29224999999999995         -1.7701381773963287E-007
  0.29309999999999997         -2.1380288457971859E-007
  0.29394999999999999         -2.4805108397957191E-007
  0.29480000000000001         -2.7916093078004398E-007
  0.29564999999999997         -3.0662462402639833E-007
  0.29649999999999999         -3.3007838003564659E-007
  0.29735000000000000         -3.4931161260521274E-007
  0.29819999999999997         -3.6425289990422745E-007
  0.29904999999999998         -3.7491641594151856E-007
  0.29990000000000000         -3.8135174979160205E-007
  0.30074999999999996         -3.8359810119078751E-007
  0.30159999999999998         -3.8165904941754667E-007
  0.30245000000000000         -3.7550043277073140E-007
  0.30329999999999996         -3.6507831393494433E-007
  0.30414999999999998         -3.5037839423259280E-007
  0.30499999999999999         -3.3145556990330156E-007
  0.30584999999999996         -3.0846365437858245E-007
  0.30669999999999997         -2.8166896076494444E-007
  0.30754999999999999         -2.5145617554231618E-007
  0.30840000000000001         -2.1830378146212036E-007
  0.30924999999999997         -1.8275837970859526E-007
  0.31009999999999999         -1.4539902462412368E-007
  0.31095000000000000         -1.0680761767340898E-007
  0.31179999999999997         -6.7521803910757553E-008
  0.31264999999999998         -2.8017243892444031E-008
  0.31350000000000000          1.1306681533050133E-008
  0.31434999999999996          5.0120264173839668E-008
  0.31519999999999998          8.8148677871188074E-008
  0.31605000000000000          1.2513251431420814E-007
  0.31689999999999996          1.6078490147205237E-007
  0.31774999999999998          1.9476244664711386E-007
  0.31859999999999999          2.2664267429724523E-007
  0.31944999999999996          2.5594111169479154E-007
  0.32029999999999997          2.8215630074721361E-007
  0.32114999999999999          3.0482573185638788E-007
  0.32199999999999995          3.2359781504271791E-007
  0.32284999999999997          3.3827948856615855E-007
  0.32369999999999999          3.4885205943423198E-007
  0.32455000000000001          3.5544359020522355E-007
  0.32539999999999997          3.5826915396243069E-007
  0.32624999999999998          3.5754471570254682E-007
  0.32710000000000000          3.5341563356672141E-007
  0.32794999999999996          3.4591078210917438E-007
  0.32879999999999998          3.3494255114208083E-007
  0.32965000000000000          3.2036312505519457E-007
  0.33049999999999996          3.0204152986636728E-007
  0.33134999999999998          2.7995611093415203E-007
  0.33220000000000000          2.5426265415945193E-007
  0.33304999999999996          2.2531640576087238E-007
  0.33389999999999997          1.9364756572161662E-007
  0.33474999999999999          1.5988856489829685E-007
  0.33559999999999995          1.2468711150142772E-007
  0.33644999999999997          8.8622000223939799E-008
  0.33729999999999999          5.2151906766318925E-008
  0.33815000000000001          1.5609388365741093E-008
  0.33899999999999997         -2.0765861887984046E-008
  0.33984999999999999         -5.6766028443773587E-008
  0.34070000000000000         -9.2156897228073024E-008
  0.34154999999999996         -1.2663410990554984E-007
  0.34239999999999998         -1.5981359784055608E-007