 -0.12000000000000000          0.0000000000000000
 -0.11914999999999999         -1.2567070043659672E-012
 -0.11830000000000000         -2.9871459333153590E-012
 -0.11745000000000000         -4.1153532674600513E-012
 -0.11660000000000000         -4.4241668810437951E-012
 -0.11574999999999999         -5.3740623622870046E-012
 -0.11490000000000000         -9.9035552643069562E-012
 -0.11405000000000000         -2.1056830025676980E-011
 -0.11320000000000000         -4.0006176441151889E-011
 -0.11234999999999999         -6.4571803100732908E-011
 -0.11150000000000000         -8.9358639920199682E-011
 -0.11065000000000000         -1.0801761263600948E-010
 -0.10979999999999999         -1.1709171443441631E-010
 -0.10894999999999999         -1.1987246287555174E-010
 -0.10810000000000000         -1.2819913383581397E-010
 -0.10725000000000000         -1.6054444787559868E-010
 -0.10639999999999999         -2.3606060896516654E-010
 -0.10554999999999999         -3.6609041893723456E-010
 -0.10470000000000000         -5.4626426442608028E-010
 -0.10385000000000000         -7.5293567682096838E-010
 -0.10299999999999999         -9.4688024222767016E-010
 -0.10214999999999999         -1.0849323539730645E-009
 -0.10130000000000000         -1.1372244914180108E-009
 -0.10045000000000000         -1.1049679335326597E-009
  -9.9599999999999994E-002    -1.0324231967182840E-009
  -9.8750000000000004E-002    -1.0075560234407312E-009
  -9.7900000000000001E-002    -1.1489092826524154E-009
  -9.7049999999999997E-002    -1.5805707793672277E-009
  -9.6199999999999994E-002    -2.4014306357907397E-009
  -9.5349999999999990E-002    -3.6575333190282483E-009
  -9.4500000000000001E-002    -5.3262136503045078E-009
  -9.3649999999999997E-002    -7.3175609738719986E-009
  -9.2799999999999994E-002    -9.4934774942622197E-009
  -9.1950000000000004E-002    -1.1698865343158343E-008
  -9.1100000000000000E-002    -1.3795363984873575E-008
  -9.0249999999999997E-002    -1.5686969240003748E-008
  -8.9399999999999993E-002    -1.7329571523479036E-008
  -8.8549999999999990E-002    -1.8721964098970459E-008
  -8.7700000000000000E-002    -1.9882314869501720E-008
  -8.6849999999999997E-002    -2.0819455705925899E-008
  -8.5999999999999993E-002    -2.1509815396663732E-008
  -8.5150000000000003E-002    -2.1888755928014872E-008
  -8.4300000000000000E-002    -2.1859138270038460E-008
  -8.3449999999999996E-002    -2.1312730460389697E-008
  -8.2600000000000007E-002    -2.0154207856178236E-008
  -8.1749999999999989E-002    -1.8315587248331009E-008
  -8.0900000000000000E-002    -1.5751593887464252E-008
  -8.0049999999999996E-002    -1.2413207694602496E-008
  -7.9199999999999993E-002    -8.2059119007706850E-009
  -7.8350000000000003E-002    -2.9454194332182455E-009
  -7.7499999999999999E-002     3.6728889345188775E-009
  -7.6649999999999996E-002     1.2078162340762774E-008
  -7.5800000000000006E-002     2.2799575573404048E-008
  -7.4949999999999989E-002     3.6418700530560501E-008
  -7.4099999999999999E-002     5.3520365264333565E-008
  -7.3249999999999996E-002     7.4660645562594590E-008
  -7.2399999999999992E-002     1.0037543411438022E-007
  -7.1550000000000002E-002     1.3123635687279510E-007
  -7.0699999999999999E-002     1.6795081806239427E-007
  -6.9849999999999995E-002     2.1148291377335820E-007
  -6.9000000000000006E-002     2.6316424739022436E-007
  -6.8149999999999988E-002     3.2477280727839070E-007
  -6.7299999999999999E-002     3.9854669407826241E-007
  -6.6449999999999995E-002     4.8714525582214925E-007
  -6.5599999999999992E-002     5.9356437491401320E-007
  -6.4750000000000002E-002     7.2104547157228325E-007
  -6.3899999999999998E-002     8.7301723592765174E-007
  -6.3049999999999995E-002     1.0530984268035373E-006
  -6.2199999999999998E-002     1.2651918063419554E-006
  -6.1350000000000002E-002     1.5136425505000516E-006
  -6.0499999999999998E-002     1.8034493640859233E-006
  -5.9650000000000002E-002     2.1404710557853717E-006
  -5.8799999999999998E-002     2.5316038494548066E-006
  -5.7950000000000002E-002     2.9848743663205863E-006
  -5.7099999999999998E-002     3.5094518649092432E-006
  -5.6249999999999994E-002     4.1155997697809732E-006
  -5.5400000000000005E-002     4.8145961231475125E-006
  -5.4550000000000001E-002     5.6186582066123137E-006
  -5.3699999999999998E-002     6.5409466124283408E-006
  -5.2849999999999994E-002     7.5956288634203756E-006
  -5.2000000000000005E-002     8.7980220986685383E-006
  -5.1150000000000001E-002     1.0164797416136740E-005
  -5.0299999999999997E-002     1.1714214362690942E-005
  -4.9449999999999994E-002     1.3466288108272214E-005
  -4.8600000000000004E-002     1.5442894045543672E-005
  -4.7750000000000001E-002     1.7667832237156277E-005
  -4.6899999999999997E-002     2.0166820332646406E-005
  -4.6049999999999994E-002     2.2967351494291649E-005
  -4.5200000000000004E-002     2.6098729023402118E-005
  -4.4350000000000001E-002     2.9591906830751741E-005
  -4.3499999999999997E-002     3.3479530514432605E-005
  -4.2649999999999993E-002     3.7795991719735263E-005
  -4.1800000000000004E-002     4.2577357903745285E-005
  -4.0950000000000000E-002     4.7861386479756355E-005
  -4.0099999999999997E-002     5.3687461791236966E-005
  -3.9249999999999993E-002     6.0096353209600879E-005
  -3.8400000000000004E-002     6.7129997296809033E-005
  -3.7550000000000000E-002     7.4831072845077764E-005
  -3.6699999999999997E-002     8.3242591035113389E-005
  -3.5850000000000007E-002     9.2407464230348049E-005
  -3.5000000000000003E-002     1.0236811142800190E-004
  -3.4150000000000000E-002     1.1316600724287535E-004
  -3.3299999999999996E-002     1.2484151463638648E-004
  -3.2450000000000007E-002     1.3743316976689513E-004
  -3.1600000000000003E-002     1.5097720866202020E-004
  -3.0750000000000000E-002     1.6550730383469971E-004
  -2.9899999999999996E-002     1.8105328752065320E-004
  -2.9050000000000006E-002     1.9764080751080747E-004
  -2.8200000000000003E-002     2.1529020204780213E-004
  -2.7349999999999999E-002     2.3401512913081727E-004
  -2.6499999999999996E-002     2.5382240011869632E-004
  -2.5650000000000006E-002     2.7471019390874567E-004
  -2.4800000000000003E-002     2.9666743593489151E-004
  -2.3949999999999999E-002     3.1967314816547324E-004
  -2.3099999999999996E-002     3.4369543215952641E-004
  -2.2250000000000006E-002     3.6869044373641867E-004
  -2.1400000000000002E-002     3.9460219278167097E-004
  -2.0549999999999999E-002     4.2136095196242769E-004
  -1.9699999999999995E-002     4.4888290685942290E-004
  -1.8850000000000006E-002     4.7706809481626127E-004
  -1.8000000000000002E-002     5.0580163613077485E-004
  -1.7149999999999999E-002     5.3495142330507728E-004
  -1.6299999999999995E-002     5.6436834665388896E-004
  -1.5450000000000005E-002     5.9388545813456137E-004
  -1.4600000000000002E-002     6.2331866292684177E-004
  -1.3749999999999998E-002     6.5246672590617055E-004
  -1.2899999999999995E-002     6.8111147647274741E-004
  -1.2050000000000005E-002     7.0901731691244620E-004
  -1.1200000000000002E-002     7.3593320394693489E-004
  -1.0349999999999998E-002     7.6159334976247947E-004
  -9.5000000000000084E-003     7.8571740390085505E-004
  -8.6500000000000049E-003     8.0801239159514811E-004
  -7.8000000000000014E-003     8.2817438860473941E-004
  -6.9499999999999978E-003     8.4588980482001223E-004
  -6.1000000000000082E-003     8.6083657745408457E-004
  -5.2500000000000047E-003     8.7269122815930534E-004
  -4.4000000000000011E-003     8.8112517019417957E-004
  -3.5499999999999976E-003     8.8581400595318040E-004
  -2.7000000000000079E-003     8.8643570217634407E-004
  -1.8500000000000044E-003     8.8267716405970745E-004
  -1.0000000000000009E-003     8.7423592145688769E-004
  -1.4999999999999736E-004     8.6082490151551875E-004
   6.9999999999999230E-004     8.4217554745726942E-004
   1.5499999999999958E-003     8.1804215088894711E-004
   2.3999999999999994E-003     7.8820384419780608E-004
   3.2500000000000029E-003     7.5247272855644121E-004
   4.0999999999999925E-003     7.1069327398933250E-004
   4.9499999999999961E-003     6.6274776012915048E-004
   5.7999999999999996E-003     6.0855895954770153E-004
   6.6499999999999893E-003     5.4809667452160044E-004
   7.5000000000000067E-003     4.8137760695367152E-004
   8.3499999999999963E-003     4.0846816785654013E-004
   9.1999999999999860E-003     3.2948727637091850E-004
   1.0050000000000003E-002     2.4460893455084670E-004
   1.0899999999999993E-002     1.5406314616236332E-004
   1.1750000000000010E-002     5.8135996202555084E-005
   1.2600000000000000E-002    -4.2827376140483156E-005
   1.3449999999999990E-002    -1.4842585590923014E-004
   1.4300000000000007E-002    -2.5820214784882966E-004
   1.5149999999999997E-002    -3.7164392710948560E-004
   1.5999999999999986E-002    -4.8818760352305635E-004
   1.6850000000000004E-002    -6.0722073467151297E-004
   1.7699999999999994E-002    -7.2808387842151275E-004
   1.8549999999999983E-002    -8.5007791212703967E-004
   1.9400000000000001E-002    -9.7246495226403849E-004
   2.0249999999999990E-002    -1.0944771145466356E-003
   2.1100000000000008E-002    -1.2153208681684488E-003
   2.1949999999999997E-002    -1.3341825672482039E-003
   2.2799999999999987E-002    -1.4502365207610850E-003
   2.3650000000000004E-002    -1.5626516350952246E-003
   2.4499999999999994E-002    -1.6705999198794611E-003
   2.5349999999999984E-002    -1.7732632398548072E-003
   2.6200000000000001E-002    -1.8698421227329475E-003
   2.7049999999999991E-002    -1.9595631002389184E-003
   2.7900000000000008E-002    -2.0416867004637868E-003
   2.8749999999999998E-002    -2.1155160286870345E-003
   2.9599999999999987E-002    -2.1804018450174664E-003
   3.0450000000000005E-002    -2.2357515674347283E-003
   3.1299999999999994E-002    -2.2810351278862830E-003
   3.2149999999999984E-002    -2.3157906080712646E-003
   3.3000000000000002E-002    -2.3396307895790620E-003
   3.3849999999999991E-002    -2.3522466656681778E-003
   3.4700000000000009E-002    -2.3534133472709151E-003
   3.5549999999999998E-002    -2.3429920552323329E-003
   3.6399999999999988E-002    -2.3209326367748919E-003
   3.7250000000000005E-002    -2.2872756112443187E-003
   3.8099999999999995E-002    -2.2421516540019181E-003
   3.8949999999999985E-002    -2.1857822799492580E-003
   3.9800000000000002E-002    -2.1184770963930699E-003
   4.0649999999999992E-002    -2.0406337539077227E-003
   4.1500000000000009E-002    -1.9527308867524403E-003
   4.2349999999999999E-002    -1.8553249297353111E-003
   4.3199999999999988E-002    -1.7490490355830876E-003
   4.4050000000000006E-002    -1.6346015415902890E-003
   4.4899999999999995E-002    -1.5127445266684208E-003
   4.5749999999999985E-002    -1.3842920576362346E-003
   4.6600000000000003E-002    -1.2501074678737767E-003
   4.7449999999999992E-002    -1.1110907473963895E-003
   4.8299999999999982E-002    -9.6817353932002518E-004
   4.9149999999999999E-002    -8.2230684714696464E-004
   4.9999999999999989E-002    -6.7445510867732562E-004
   5.0850000000000006E-002    -5.2558597212875821E-004
   5.1699999999999996E-002    -3.7666046397024977E-004
   5.2549999999999986E-002    -2.2862625134884717E-004
   5.3400000000000003E-002    -8.2407267296518902E-005
   5.4249999999999993E-002     6.1101871880321152E-005
   5.5099999999999982E-002     2.0104812838088075E-004
   5.5950000000000000E-002     3.3661998077336207E-004
   5.6799999999999989E-002     4.6706345686170866E-004
   5.7650000000000007E-002     5.9167769568668868E-004
   5.8499999999999996E-002     7.0982711707745353E-004
   5.9349999999999986E-002     8.2094162645364715E-004
   6.0200000000000004E-002     9.2452154402360327E-004
   6.1049999999999993E-002     1.0201393949307988E-003
   6.1899999999999983E-002     1.1074436115557857E-003
   6.2750000000000000E-002     1.1861579239950113E-003
   6.3599999999999990E-002     1.2560832086287209E-003
   6.4450000000000007E-002     1.3170934895230179E-003
   6.5299999999999997E-002     1.3691378528297054E-003
   6.6149999999999987E-002     1.4122378923956073E-003
   6.7000000000000004E-002     1.4464820702285892E-003
   6.7849999999999994E-002     1.4720259805390315E-003
   6.8699999999999983E-002     1.4890835110364042E-003
   6.9550000000000001E-002     1.4979264566053396E-003
   7.0399999999999990E-002     1.4988774449673755E-003
   7.1249999999999980E-002     1.4923059590091197E-003
   7.2099999999999997E-002     1.4786217263721925E-003
   7.2949999999999987E-002     1.4582706178096489E-003
   7.3800000000000004E-002     1.4317277953333743E-003
   7.4649999999999994E-002     1.3994920688679970E-003
   7.5499999999999984E-002     1.3620798549891790E-003
   7.6350000000000001E-002     1.3200195678754871E-003
   7.7199999999999991E-002     1.2738462357301608E-003
   7.8049999999999981E-002     1.2240966327722274E-003
   7.8899999999999998E-002     1.1713033477999193E-003
   7.9749999999999988E-002     1.1159910165669962E-003
   8.0600000000000005E-002     1.0586714862403520E-003
   8.1449999999999995E-002     9.9984042737341172E-004
   8.2299999999999984E-002     9.3997322593700747E-004
   8.3150000000000002E-002     8.7952171160687409E-004
   8.3999999999999991E-002     8.1891251675785502E-004
   8.4849999999999981E-002     7.5854396423456077E-004
   8.5699999999999998E-002     6.9878484709042735E-004
   8.6549999999999988E-002     6.3997296983513813E-004
   8.7400000000000005E-002     5.8241404721205182E-004
   8.8249999999999995E-002     5.2638189669785109E-004
   8.9099999999999985E-002     4.7211733840436657E-004
   8.9950000000000002E-002     4.1982885335339329E-004
   9.0799999999999992E-002     3.6969279893057862E-004
   9.1649999999999981E-002     3.2185559000807691E-004
   9.2499999999999999E-002     2.7643244801072754E-004
   9.3349999999999989E-002     2.3351137746048758E-004
   9.4200000000000006E-002     1.9315293939045882E-004
   9.5049999999999996E-002     1.5539330267783070E-004
   9.5899999999999985E-002     1.2024489672275228E-004
   9.6750000000000003E-002     8.7699356609969095E-005
   9.7599999999999992E-002     5.7728374613244342E-005
   9.8449999999999982E-002     3.0287462083032794E-005
   9.9299999999999999E-002     5.3156036893186366E-006
  0.10014999999999999         -1.7261170816856898E-005
  0.10099999999999998         -3.7528228186688089E-005
  0.10185000000000000         -5.5580982830803572E-005
  0.10269999999999999         -7.1522401313503829E-005
  0.10355000000000000         -8.5461957622768599E-005
  0.10439999999999999         -9.7512598059040019E-005
  0.10524999999999998         -1.0779113832458936E-004
  0.10610000000000000         -1.1641514080368093E-004
  0.10694999999999999         -1.2350288817760974E-004
  0.10779999999999998         -1.2917158893243651E-004
  0.10865000000000000         -1.3353672701929174E-004
  0.10949999999999999         -1.3671063250717257E-004
  0.11035000000000000         -1.3880263943202758E-004
  0.11119999999999999         -1.3991824976846188E-004
  0.11204999999999998         -1.4015833456547668E-004
  0.11290000000000000         -1.3961950412997025E-004
  0.11374999999999999         -1.3839347911054684E-004
  0.11459999999999998         -1.3656678114159479E-004
  0.11545000000000000         -1.3422068439443915E-004
  0.11629999999999999         -1.3143102465103482E-004
  0.11715000000000000         -1.2826809638886600E-004
  0.11799999999999999         -1.2479660867333747E-004
  0.11884999999999998         -1.2107536362508510E-004
  0.11970000000000000         -1.1715844838593069E-004
  0.12054999999999999         -1.1309423726662777E-004
  0.12139999999999998         -1.0892677279517772E-004
  0.12225000000000000         -1.0469533483577010E-004
  0.12309999999999999         -1.0043547358126902E-004
  0.12395000000000000         -9.6178719328174784E-005
  0.12479999999999999         -9.1953213349540568E-005
  0.12564999999999998         -8.7783294724247025E-005
  0.12650000000000000         -8.3689944435082675E-005
  0.12734999999999999         -7.9690991417276350E-005
  0.12819999999999998         -7.5801007496925581E-005
  0.12905000000000000         -7.2031671147849415E-005
  0.12989999999999999         -6.8392098308407332E-005
  0.13074999999999998         -6.4889258571519266E-005
  0.13159999999999999         -6.1528137752717054E-005
  0.13245000000000001         -5.8312348362524584E-005
  0.13329999999999997         -5.5243975674991150E-005
  0.13414999999999999         -5.2323925958241133E-005
  0.13500000000000001         -4.9551922522757635E-005
  0.13584999999999997         -4.6926503285616440E-005
  0.13669999999999999         -4.4445123117693780E-005
  0.13755000000000001         -4.2104321023056108E-005
  0.13839999999999997         -3.9899657693463952E-005
  0.13924999999999998         -3.7826338124803364E-005
  0.14010000000000000         -3.5878773496337454E-005
  0.14094999999999996         -3.4051583870495927E-005
  0.14179999999999998         -3.2339225953924919E-005
  0.14265000000000000         -3.0736092035389101E-005
  0.14350000000000002         -2.9236748691984371E-005
  0.14434999999999998         -2.7835732920300101E-005
  0.14520000000000000         -2.6527617223051286E-005
  0.14605000000000001         -2.5307090502749490E-005
  0.14689999999999998         -2.4168745600686826E-005
  0.14774999999999999         -2.3107358221880047E-005
  0.14860000000000001         -2.2117957249104295E-005
  0.14944999999999997         -2.1195867033532043E-005
  0.15029999999999999         -2.0336780743422942E-005
  0.15115000000000001         -1.9536755308604426E-005
  0.15199999999999997         -1.8792246408665681E-005
  0.15284999999999999         -1.8099800412582687E-005
  0.15370000000000000         -1.7456211698498114E-005
  0.15454999999999997         -1.6858165556308819E-005
  0.15539999999999998         -1.6302468488076855E-005
  0.15625000000000000         -1.5785751180657084E-005
  0.15709999999999996         -1.5304764091040332E-005
  0.15794999999999998         -1.4856261093332564E-005
  0.15880000000000000         -1.4437139474475627E-005
  0.15965000000000001         -1.4044472230635719E-005
  0.16049999999999998         -1.3675589982492863E-005
  0.16134999999999999         -1.3327945437856416E-005
  0.16220000000000001         -1.2999108588036783E-005
  0.16304999999999997         -1.2686766682906376E-005
  0.16389999999999999         -1.2388535820262817E-005
  0.16475000000000001         -1.2101998918395319E-005
  0.16559999999999997         -1.1824761766489313E-005
  0.16644999999999999         -1.1554324000423646E-005
  0.16730000000000000         -1.1288251223403172E-005
  0.16814999999999997         -1.1024277188730346E-005
  0.16899999999999998         -1.0760272973244954E-005
  0.16985000000000000         -1.0494354156049171E-005
  0.17069999999999996         -1.0225057669730207E-005
  0.17154999999999998         -9.9511276696632342E-006
  0.17240000000000000         -9.6716230624323306E-006
  0.17325000000000002         -9.3859133415508706E-006
  0.17409999999999998         -9.0936565737140740E-006
  0.17494999999999999         -8.7947710093301830E-006
  0.17580000000000001         -8.4893674092776907E-006
  0.17664999999999997         -8.1778962344295200E-006
  0.17749999999999999         -7.8609950511348753E-006
  0.17835000000000001         -7.5395574183805686E-006
  0.17919999999999997         -7.2147555975904299E-006
  0.18004999999999999         -6.8878912203034780E-006
  0.18090000000000001         -6.5604672426887035E-006
  0.18174999999999997         -6.2340550225557280E-006
  0.18259999999999998         -5.9102813726305023E-006
  0.18345000000000000         -5.5907603241790564E-006
  0.18429999999999996         -5.2770294062921313E-006
  0.18514999999999998         -4.9705865337256536E-006
  0.18600000000000000         -4.6728795631842697E-006
  0.18684999999999996         -4.3852512644138277E-006
  0.18769999999999998         -4.1090150119618994E-006
  0.18855000000000000         -3.8454813143454180E-006
  0.18940000000000001         -3.5958288590640519E-006
  0.19024999999999997         -3.3611417608068177E-006
  0.19109999999999999         -3.1423331951767832E-006
  0.19195000000000001         -2.9400313691857001E-006
  0.19279999999999997         -2.7545819296042812E-006
  0.19364999999999999         -2.5859618672720125E-006
  0.19450000000000001         -2.4338854314938620E-006
  0.19534999999999997         -2.2977581384026623E-006
  0.19619999999999999         -2.1768284999946718E-006
  0.19705000000000000         -2.0702933160687162E-006
  0.19789999999999996         -1.9773265822328419E-006
  0.19874999999999998         -1.8971516102309213E-006
  0.19960000000000000         -1.8290454755978016E-006
  0.20044999999999996         -1.7723461745029338E-006
  0.20129999999999998         -1.7263669810818688E-006
  0.20215000000000000         -1.6903272485145207E-006
  0.20300000000000001         -1.6634035778923937E-006
  0.20384999999999998         -1.6447626273489926E-006
  0.20469999999999999         -1.6335402667660958E-006
  0.20555000000000001         -1.6289686162347400E-006
  0.20639999999999997         -1.6304370760231133E-006
  0.20724999999999999         -1.6374892519289722E-006
  0.20810000000000001         -1.6498696580677678E-006
  0.20894999999999997         -1.6674131449884518E-006
  0.20979999999999999         -1.6899572072289202E-006
  0.21065000000000000         -1.7173298271034608E-006
  0.21149999999999997         -1.7492313571624364E-006
  0.21234999999999998         -1.7852805308817304E-006
  0.21320000000000000         -1.8249809671987643E-006
  0.21404999999999996         -1.8678728317396295E-006
  0.21489999999999998         -1.9135531994506469E-006
  0.21575000000000000         -1.9617335667917651E-006
  0.21659999999999996         -2.0122556169725464E-006
  0.21744999999999998         -2.0650094687699523E-006
  0.21829999999999999         -2.1198416180223227E-006
  0.21915000000000001         -2.1764367363087921E-006
  0.21999999999999997         -2.2342596071616385E-006
  0.22084999999999999         -2.2924958050495671E-006
  0.22170000000000001         -2.3501311034619976E-006
  0.22254999999999997         -2.4059571485098837E-006
  0.22339999999999999         -2.4587629862120969E-006
  0.22425000000000000         -2.5073712058388332E-006
  0.22509999999999997         -2.5507518062332895E-006
  0.22594999999999998         -2.5880191070035872E-006
  0.22680000000000000         -2.6184000248641738E-006
  0.22764999999999996         -2.6411732047216382E-006
  0.22849999999999998         -2.6556153370690900E-006
  0.22935000000000000         -2.6609960418466966E-006
  0.23019999999999996         -2.6565869532474519E-006
  0.23104999999999998         -2.6417616961223990E-006
  0.23190000000000000         -2.6160222272917290E-006
  0.23275000000000001         -2.5791245940349952E-006
  0.23359999999999997         -2.5310588058255346E-006
  0.23444999999999999         -2.4720871107889651E-006
  0.23530000000000001         -2.4026352525564448E-006
  0.23614999999999997         -2.3232662255610192E-006
  0.23699999999999999         -2.2345694193710393E-006
  0.23785000000000001         -2.1371360945132271E-006
  0.23869999999999997         -2.0315773038290137E-006
  0.23954999999999999         -1.9185344692298050E-006
  0.24040000000000000         -1.7987722159007725E-006
  0.24124999999999996         -1.6732043431596142E-006
  0.24209999999999998         -1.5429477839440664E-006
  0.24295000000000000         -1.4092612777780686E-006
  0.24379999999999996         -1.2735408927174764E-006
  0.24464999999999998         -1.1371967381733564E-006
  0.24550000000000000         -1.0015794917497619E-006
  0.24634999999999996         -8.6790756185389517E-007
  0.24719999999999998         -7.3724664300014126E-007
  0.24804999999999999         -6.1047704487055555E-007
  0.24890000000000001         -4.8836844291527748E-007
  0.24974999999999997         -3.7156586758174993E-007
  0.25059999999999999         -2.6065509059811647E-007
  0.25145000000000001         -1.5614640327153262E-007
  0.25229999999999997         -5.8492526090576404E-008
  0.25314999999999999          3.1925536642059393E-008
  0.25400000000000000          1.1484494421243997E-007
  0.25484999999999997          1.9006298198019572E-007
  0.25569999999999998          2.5748570678515433E-007
  0.25655000000000000          3.1706078053727748E-007
  0.25739999999999996          3.6878887336723547E-007
  0.25824999999999998          4.1266178212310686E-007
  0.25910000000000000          4.4868083326174019E-007
  0.25994999999999996          4.7683400215082388E-007
  0.26079999999999998          4.9712838285574427E-007
  0.26164999999999999          5.0954811575202687E-007
  0.26249999999999996          5.1411382792602444E-007
  0.26334999999999997          5.1087928009726359E-007
  0.26419999999999999          4.9988741339059034E-007
  0.26505000000000001          4.8123004294660132E-007
  0.26589999999999997          4.5500044439841630E-007
  0.26674999999999999          4.2131509015701963E-007
  0.26760000000000000          3.8032325726121042E-007
  0.26844999999999997          3.3219948411714651E-007
  0.26929999999999998          2.7714751725271340E-007
  0.27015000000000000          2.1539773246285815E-007
  0.27099999999999996          1.4718931265526694E-007
  0.27184999999999998          7.2775414968696374E-008
  0.27270000000000000         -7.5834941286221643E-009
  0.27354999999999996         -9.3592630864331124E-008
  0.27439999999999998         -1.8488234129917550E-007
  0.27524999999999999         -2.8098535464427762E-007
  0.27609999999999996         -3.8129698506030364E-007
  0.27694999999999997         -4.8506077259152104E-007
  0.27779999999999999         -5.9136949224635269E-007
  0.27865000000000001         -6.9920892478388758E-007
  0.27949999999999997         -8.0748166300358546E-007
  0.28034999999999999         -9.1507435071874139E-007
  0.28120000000000001         -1.0208681090590385E-006
  0.28204999999999997         -1.1237586654111401E-006
  0.28289999999999998         -1.2226393066507608E-006
  0.28375000000000000         -1.3164024754400300E-006
  0.28459999999999996         -1.4039032646232028E-006
  0.28544999999999998         -1.4839994189624729E-006
  0.28630000000000000         -1.5555882418537368E-006
  0.28714999999999996         -1.6176641167690795E-006
  0.28799999999999998         -1.6693854438732536E-006
  0.28885000000000000         -1.7101159550056835E-006
  0.28969999999999996         -1.7394316448928473E-006
  0.29054999999999997         -1.7570818440842456E-006
  0.29139999999999999         -1.7629217322734766E-006
  0.29224999999999995         -1.7568455298576900E-006
  0.29309999999999997         -1.7387178583464345E-006
  0.29394999999999999         -1.7083712070524837E-006
  0.29480000000000001         -1.6656473030524499E-006
  0.29564999999999997         -1.6104925952767672E-006
  0.29649999999999999         -1.5430722571215142E-006
  0.29735000000000000         -1.4638491845868151E-006
  0.29819999999999997         -1.3736531229415314E-006
  0.29904999999999998         -1.2736207180648719E-006
  0.29990000000000000         -1.1651302346405368E-006
  0.30074999999999996         -1.0496587665812789E-006
  0.30159999999999998         -9.2864073325335067E-007
  0.30245000000000000         -8.0335009454471580E-007
  0.30329999999999996         -6.7487319670108912E-007
  0.30414999999999998         -5.4411895667430922E-007
  0.30499999999999999         -4.1190999597935058E-007
  0.30584999999999996         -2.7907525726156069E-007
  0.30669999999999997         -1.4653479409265270E-007
  0.30754999999999999         -1.5352074989446623E-008
  0.30840000000000001          1.1328203022692695E-007
  0.30924999999999997          2.3810873918549676E-007
  0.31009999999999999          3.5791477282294842E-007
  0.31095000000000000          4.7159411933777113E-007
  0.31179999999999997          5.7824987872112924E-007
  0.31264999999999998          6.7720414251195946E-007
  0.31350000000000000          7.6796968629158181E-007
  0.31434999999999996          8.5017925495533061E-007
  0.31519999999999998          9.2351471286492200E-007
  0.31605000000000000          9.8764738885414065E-007
  0.31689999999999996          1.0421760095123834E-006
  0.31774999999999998          1.0866501823167476E-006
  0.31859999999999999          1.1206028012449825E-006
  0.31944999999999996          1.1435983635575483E-006
  0.32029999999999997          1.1553184620161045E-006
  0.32114999999999999          1.1556114500313275E-006
  0.32199999999999995          1.1445241285457457E-006
  0.32284999999999997          1.1223058788561851E-006
  0.32369999999999999          1.0893729314668088E-006
  0.32455000000000001          1.0462470195711798E-006
  0.32539999999999997          9.9347690636532126E-007
  0.32624999999999998          9.3158078082793951E-007
  0.32710000000000000          8.6099521287964699E-007
  0.32794999999999996          7.8205985213547026E-007
  0.32879999999999998          6.9503843532610143E-007
  0.32965000000000000          6.0019151079241097E-007
  0.33049999999999996          4.9784968966931195E-007
  0.33134999999999998          3.8851010202705553E-007
  0.33220000000000000          2.7289704047334586E-007
  0.33304999999999996          1.5199754426571611E-007
  0.33389999999999997          2.7033360771571136E-008
  0.33474999999999999         -1.0061468855759354E-007
  0.33559999999999995         -2.2950727605952139E-007
  0.33644999999999997         -3.5824586242100554E-007
  0.33729999999999999         -4.8556824416194291E-007
  0.33815000000000001         -6.1038136558839797E-007
  0.33899999999999997         -7.3174834302348615E-007
  0.33984999999999999         -8.4883084289676458E-007
  0.34070000000000000         -9.6080496260798159E-007
  0.34154999999999996         -1.0667891902061950E-006
  0.34239999999999998         -1.1658054675845357E-006