 -0.12000000000000000          0.0000000000000000
 -0.11914999999999999          0.0000000000000000
 -0.11830000000000000          0.0000000000000000
 -0.11745000000000000          3.6098547657568852E-017
 -0.11660000000000000          1.1349071490067559E-015
 -0.11574999999999999          8.4259303829926629E-015
 -0.11490000000000000          3.3855439475817871E-014
 -0.11405000000000000          8.8471998478327496E-014
 -0.11320000000000000          1.5143659362193936E-013
 -0.11234999999999999          1.1691962156585539E-013
 -0.11150000000000000         -2.4488113879166278E-013
 -0.11065000000000000         -1.2362224964939212E-012
 -0.10979999999999999         -3.0059872711298193E-012
 -0.10894999999999999         -5.1334222447846196E-012
 -0.10810000000000000         -6.1620940998476978E-012
 -0.10725000000000000         -3.4230698983972126E-012
 -0.10639999999999999          6.3910315858685266E-012
 -0.10554999999999999          2.5544325847208460E-011
 -0.10470000000000000          5.2549775930401348E-011
 -0.10385000000000000          7.9251463131235690E-011
 -0.10299999999999999          8.9301059496069211E-011
 -0.10214999999999999          6.0044945969527240E-011
 -0.10130000000000000         -3.0596150742928031E-011
 -0.10045000000000000         -1.9223866839545795E-010
  -9.9599999999999994E-002    -4.0766876642328778E-010
  -9.8750000000000004E-002    -6.2132481949610612E-010
  -9.7900000000000001E-002    -7.3779657284251880E-010
  -9.7049999999999997E-002    -6.3702790863050532E-010
  -9.6199999999999994E-002    -2.0919218566641340E-010
  -9.5349999999999990E-002     5.9464166732515703E-010
  -9.4500000000000001E-002     1.7084036973863960E-009
  -9.3649999999999997E-002     2.9130984930398977E-009
  -9.2799999999999994E-002     3.8373026063669188E-009
  -9.1950000000000004E-002     4.0134178492988777E-009
  -9.1100000000000000E-002     2.9935834918903293E-009
  -9.0249999999999997E-002     5.0917035503743927E-010
  -8.9399999999999993E-002    -3.3636838982365499E-009
  -8.8549999999999990E-002    -8.0857439872171411E-009
  -8.7700000000000000E-002    -1.2639341246784140E-008
  -8.6849999999999997E-002    -1.5656299133710673E-008
  -8.5999999999999993E-002    -1.5695933112419558E-008
  -8.5150000000000003E-002    -1.1634598414125613E-008
  -8.4300000000000000E-002    -3.0830004508762932E-009
  -8.3449999999999996E-002     9.2833099662820410E-009
  -8.2600000000000007E-002     2.3597815873286526E-008
  -8.1749999999999989E-002     3.6967213527484058E-008
  -8.0900000000000000E-002     4.5947700474568671E-008
  -8.0049999999999996E-002     4.7272211345843260E-008
  -7.9199999999999993E-002     3.8686236090818213E-008
  -7.8350000000000003E-002     1.9695287315681534E-008
  -7.7499999999999999E-002    -7.9815687141657440E-009
  -7.6649999999999996E-002    -4.0410828818136824E-008
  -7.5800000000000006E-002    -7.1959681791163340E-008
  -7.4949999999999989E-002    -9.6266557122281784E-008
  -7.4099999999999999E-002    -1.0748689836921167E-007
  -7.3249999999999996E-002    -1.0155048265634382E-007
  -7.2399999999999992E-002    -7.7145530352968314E-008
  -7.1550000000000002E-002    -3.6195357753998103E-008
  -7.0699999999999999E-002     1.6295646195242830E-008
  -6.9849999999999995E-002     7.3004793084194613E-008
  -6.9000000000000006E-002     1.2550148503499431E-007
  -6.8149999999999988E-002     1.6564630929702196E-007
  -6.7299999999999999E-002     1.8688997842851180E-007
  -6.6449999999999995E-002     1.8522681009338368E-007
  -6.5599999999999992E-002     1.5965904639101542E-007
  -6.4750000000000002E-002     1.1215570550978758E-007
  -6.3899999999999998E-002     4.7205580000592961E-008
  -6.3049999999999995E-002    -2.8865404138287853E-008
  -6.2199999999999998E-002    -1.0863262702681923E-007
  -6.1350000000000002E-002    -1.8423581229813687E-007
  -6.0499999999999998E-002    -2.4791758674485567E-007
  -5.9650000000000002E-002    -2.9247207562388501E-007
  -5.8799999999999998E-002    -3.1168937652751430E-007
  -5.7950000000000002E-002    -3.0087975137196073E-007
  -5.7099999999999998E-002    -2.5750714695121594E-007
  -5.6249999999999994E-002    -1.8187292743779205E-007
  -5.5400000000000005E-002    -7.7702066667280556E-008
  -5.4550000000000001E-002     4.7568961982288688E-008
  -5.3699999999999998E-002     1.8299415505889921E-007
  -5.2849999999999994E-002     3.1492440091320707E-007
  -5.2000000000000005E-002     4.2840302774938674E-007
  -5.1150000000000001E-002     5.0898845047067445E-007
  -5.0299999999999997E-002     5.4471848809507700E-007
  -4.9449999999999994E-002     5.2787187864775162E-007
  -4.8600000000000004E-002     4.5620383306325388E-007
  -4.7750000000000001E-002     3.3343408873177632E-007
  -4.6899999999999997E-002     1.6891845592844072E-007
  -4.6049999999999994E-002    -2.3401517102543431E-008
  -4.5200000000000004E-002    -2.2654625068563204E-007
  -4.4350000000000001E-002    -4.2225587620988660E-007
  -4.3499999999999997E-002    -5.9268621479230723E-007
  -4.2649999999999993E-002    -7.2185247525387070E-007
  -4.1800000000000004E-002    -7.9674679025637870E-007
  -4.0950000000000000E-002    -8.0816357405266951E-007
  -4.0099999999999997E-002    -7.5133004306166838E-007
  -3.9249999999999993E-002    -6.2643605705936714E-007
  -3.8400000000000004E-002    -4.3908969311185625E-007
  -3.7550000000000000E-002    -2.0061886493536997E-007
  -3.6699999999999997E-002     7.1963743589933000E-008
  -3.5850000000000007E-002     3.5656868223917209E-007
  -3.5000000000000003E-002     6.2741973004467751E-007
  -3.4150000000000000E-002     8.5731162175430301E-007
  -3.3299999999999996E-002     1.0206251844824593E-006
  -3.2450000000000007E-002     1.0967595038111795E-006
  -3.1600000000000003E-002     1.0734439207116756E-006
  -3.0750000000000000E-002     9.4928623668310179E-007
  -2.9899999999999996E-002     7.3494688634351313E-007
  -2.9050000000000006E-002     4.5251377775709881E-007
  -2.8200000000000003E-002     1.3296830073929087E-007
  -2.7349999999999999E-002    -1.8798596782241580E-007
  -2.6499999999999996E-002    -4.7509108831725564E-007
  -2.5650000000000006E-002    -6.9879842115633049E-007
  -2.4800000000000003E-002    -8.3964371655524360E-007
  -2.3949999999999999E-002    -8.9087834533859033E-007
  -2.3099999999999996E-002    -8.5882837811624274E-007
  -2.2250000000000006E-002    -7.6091261677057702E-007
  -2.1400000000000002E-002    -6.2174279185701557E-007
  -2.0549999999999999E-002    -4.6813706882796455E-007
  -1.9699999999999995E-002    -3.2410401902244327E-007
  -1.8850000000000006E-002    -2.0683770169066705E-007
  -1.8000000000000002E-002    -1.2450641730261228E-007
  -1.7149999999999999E-002    -7.6177140255593925E-008
  -1.6299999999999995E-002    -5.3705600425965957E-008
  -1.5450000000000005E-002    -4.4964025384692152E-008
  -1.4600000000000002E-002    -3.7492533378874532E-008
  -1.3749999999999998E-002    -2.1619229438898844E-008
  -1.2899999999999995E-002     7.6949970659260097E-009
  -1.2050000000000005E-002     5.0629373808638002E-008
  -1.1200000000000002E-002     1.0375533779403335E-007
  -1.0349999999999998E-002     1.6220195965164780E-007
  -9.5000000000000084E-003     2.2192346875212544E-007
  -8.6500000000000049E-003     2.8125072325789647E-007
  -7.8000000000000014E-003     3.4116202376465788E-007
  -6.9499999999999978E-003     4.0412843776073533E-007
  -6.1000000000000082E-003     4.7187004051662492E-007
  -5.2500000000000047E-003     5.4275016067920624E-007
  -4.4000000000000011E-003     6.0971774994461990E-007
  -3.5499999999999976E-003     6.5961882485885001E-007
  -2.7000000000000079E-003     6.7435843685882529E-007
  -1.8500000000000044E-003     6.3386015070351523E-007
  -1.0000000000000009E-003     5.2023903493526630E-007
  -1.4999999999999736E-004     3.2218798910592381E-007
   6.9999999999999230E-004     3.8402305445773452E-008
   1.5499999999999958E-003    -3.2098810881545972E-007
   2.3999999999999994E-003    -7.3556180895183585E-007
   3.2500000000000029E-003    -1.1782597420862213E-006
   4.0999999999999925E-003    -1.6208763904418930E-006
   4.9499999999999961E-003    -2.0401814695907851E-006
   5.7999999999999996E-003    -2.4232475842627604E-006
   6.6499999999999893E-003    -2.7707314957828605E-006
   7.5000000000000067E-003    -3.0973436848657948E-006
   8.3499999999999963E-003    -3.4294564732468190E-006
   9.1999999999999860E-003    -3.8005117763285647E-006
   1.0050000000000003E-002    -4.2454492713965535E-006
   1.0899999999999993E-002    -4.7956985094651914E-006
   1.1750000000000010E-002    -5.4760453631626905E-006
   1.2600000000000000E-002    -6.3042193061408744E-006
   1.3449999999999990E-002    -7.2933056343254275E-006
   1.4300000000000007E-002    -8.4562498397361611E-006
   1.5149999999999997E-002    -9.8112359959102678E-006
   1.5999999999999986E-002    -1.1386512115805992E-005
   1.6850000000000004E-002    -1.3223287517127011E-005
   1.7699999999999994E-002    -1.5376073113902346E-005
   1.8549999999999983E-002    -1.7910600614319780E-005
   1.9400000000000001E-002    -2.0900266912853605E-005
   2.0249999999999990E-002    -2.4422342765481584E-005
   2.1100000000000008E-002    -2.8555631238951484E-005
   2.1949999999999997E-002    -3.3380773651200675E-005
   2.2799999999999987E-002    -3.8983425436922815E-005
   2.3650000000000004E-002    -4.5459963761230543E-005
   2.4499999999999994E-002    -5.2924366747318492E-005
   2.5349999999999984E-002    -6.1514987922745571E-005
   2.6200000000000001E-002    -7.1399007408359447E-005
   2.7049999999999991E-002    -8.2774181264976720E-005
   2.7900000000000008E-002    -9.5867326833791715E-005
   2.8749999999999998E-002    -1.1093058090444841E-004
   2.9599999999999987E-002    -1.2823680139431308E-004
   3.0450000000000005E-002    -1.4807638955522122E-004
   3.1299999999999994E-002    -1.7075666145340446E-004
   3.2149999999999984E-002    -1.9660480186352107E-004
   3.3000000000000002E-002    -2.2597479380048928E-004
   3.3849999999999991E-002    -2.5925575065734001E-004
   3.4700000000000009E-002    -2.9688113467881311E-004
   3.5549999999999998E-002    -3.3933572590666563E-004
   3.6399999999999988E-002    -3.8715979504872600E-004
   3.7250000000000005E-002    -4.4094882510826446E-004
   3.8099999999999995E-002    -5.0135003092702344E-004
   3.8949999999999985E-002    -5.6905677093439387E-004
   3.9800000000000002E-002    -6.4480176324994867E-004
   4.0649999999999992E-002    -7.2935294005897463E-004
   4.1500000000000009E-002    -8.2351213395158787E-004
   4.2349999999999999E-002    -9.2811509845169859E-004
   4.3199999999999988E-002    -1.0440354516206179E-003
   4.4050000000000006E-002    -1.1721869806485795E-003
   4.4899999999999995E-002    -1.3135260866014207E-003
   4.5749999999999985E-002    -1.4690507184037559E-003
   4.6600000000000003E-002    -1.6397948905230750E-003
   4.7449999999999992E-002    -1.8268188070477776E-003
   4.8299999999999982E-002    -2.0311988006885230E-003
   4.9149999999999999E-002    -2.2540101866720045E-003
   4.9999999999999989E-002    -2.4963114182055958E-003
   5.0850000000000006E-002    -2.7591290529778824E-003
   5.1699999999999996E-002    -3.0434401566875446E-003
   5.2549999999999986E-002    -3.3501606500252437E-003
   5.3400000000000003E-002    -3.6801254881832918E-003
   5.4249999999999993E-002    -4.0340652172086685E-003
   5.5099999999999982E-002    -4.4125808357666028E-003
   5.5950000000000000E-002    -4.8161227346042012E-003
   5.6799999999999989E-002    -5.2449555014107245E-003
   5.7650000000000007E-002    -5.6991276146677022E-003
   5.8499999999999996E-002    -6.1784364756304454E-003
   5.9349999999999986E-002    -6.6823939493901186E-003
   6.0200000000000004E-002    -7.2101940139244680E-003
   6.1049999999999993E-002    -7.7606789037511746E-003
   6.1899999999999983E-002    -8.3322982537293658E-003
   6.2750000000000000E-002    -8.9230855176180100E-003
   6.3599999999999990E-002    -9.5306166143337735E-003
   6.4450000000000007E-002    -1.0151972096545631E-002
   6.5299999999999997E-002    -1.0783705363187897E-002
   6.6149999999999987E-002    -1.1421809446361352E-002
   6.7000000000000004E-002    -1.2061695990422901E-002
   6.7849999999999994E-002    -1.2698171408011470E-002
   6.8699999999999983E-002    -1.3325409093120560E-002
   6.9550000000000001E-002    -1.3936963326043333E-002
   7.0399999999999990E-002    -1.4525766828362076E-002
   7.1249999999999980E-002    -1.5084131867317871E-002
   7.2099999999999997E-002    -1.5603778106575886E-002
   7.2949999999999987E-002    -1.6075853954793492E-002
   7.3800000000000004E-002    -1.6490971307606447E-002
   7.4649999999999994E-002    -1.6839253317215419E-002
   7.5499999999999984E-002    -1.7110389505247667E-002
   7.6350000000000001E-002    -1.7293719713701271E-002
   7.7199999999999991E-002    -1.7378333266189767E-002
   7.8049999999999981E-002    -1.7353146736699888E-002
   7.8899999999999998E-002    -1.7207048027447137E-002
   7.9749999999999988E-002    -1.6929003197008907E-002
   8.0600000000000005E-002    -1.6508197107677619E-002
   8.1449999999999995E-002    -1.5934187694842339E-002
   8.2299999999999984E-002    -1.5197044996938060E-002
   8.3150000000000002E-002    -1.4287517028034803E-002
   8.3999999999999991E-002    -1.3197174657838423E-002
   8.4849999999999981E-002    -1.1918600332883710E-002
   8.5699999999999998E-002    -1.0445579090999108E-002
   8.6549999999999988E-002    -8.7732776185283235E-003
   8.7400000000000005E-002    -6.8984168007040093E-003
   8.8249999999999995E-002    -4.8194680436087663E-003
   8.9099999999999985E-002    -2.5368060217851335E-003
   8.9950000000000002E-002    -5.2874609436163490E-005
   9.0799999999999992E-002     2.6276960201626213E-003
   9.1649999999999981E-002     5.4979792092005528E-003
   9.2499999999999999E-002     8.5486256708085726E-003
   9.3349999999999989E-002     1.1767835937799249E-002
   9.4200000000000006E-002     1.5141316692907003E-002
   9.5049999999999996E-002     1.8652250536856100E-002
   9.5899999999999985E-002     2.2281340850466486E-002
   9.6750000000000003E-002     2.6006799259776388E-002
   9.7599999999999992E-002     2.9804472191956019E-002
   9.8449999999999982E-002     3.3647927038329306E-002
   9.9299999999999999E-002     3.7508598291795148E-002
  0.10014999999999999          4.1356000395680076E-002
  0.10099999999999998          4.5157949518126392E-002
  0.10185000000000000          4.8880833008091332E-002
  0.10269999999999999          5.2489933052586583E-002
  0.10355000000000000          5.5949715995745782E-002
  0.10439999999999999          5.9224204488414145E-002
  0.10524999999999998          6.2277318267780921E-002
  0.10610000000000000          6.5073294899029521E-002
  0.10694999999999999          6.7577128937639452E-002
  0.10779999999999998          6.9754936531856673E-002
  0.10865000000000000          7.1574360195552508E-002
  0.10949999999999999          7.3005001906035719E-002
  0.11035000000000000          7.4018862302743363E-002
  0.11119999999999999          7.4590712155792827E-002
  0.11204999999999998          7.4698487407805728E-002
  0.11290000000000000          7.4323670434881764E-002
  0.11374999999999999          7.3451639912437111E-002
  0.11459999999999998          7.2071936828081620E-002
  0.11545000000000000          7.0178567752349708E-002
  0.11629999999999999          6.7770133904878682E-002
  0.11715000000000000          6.4850008895242950E-002
  0.11799999999999999          6.1426439069319563E-002
  0.11884999999999998          5.7512593353535868E-002
  0.11970000000000000          5.3126517624091846E-002
  0.12054999999999999          4.8291072361780929E-002
  0.12139999999999998          4.3033790977807636E-002
  0.12225000000000000          3.7386668926156608E-002
  0.12309999999999999          3.1385946135061231E-002
  0.12395000000000000          2.5071829878081542E-002
  0.12479999999999999          1.8488095271213232E-002
  0.12564999999999998          1.1681697325900731E-002
  0.12650000000000000          4.7023339339673474E-003
  0.12734999999999999         -2.3980800372159650E-003
  0.12819999999999998         -9.5658869462292087E-003
  0.12905000000000000         -1.6746270087328374E-002
  0.12989999999999999         -2.3883801462023051E-002
  0.13074999999999998         -3.0923056805569400E-002
  0.13159999999999999         -3.7809163760577497E-002
  0.13245000000000001         -4.4488361687244196E-002
  0.13329999999999997         -5.0908584929491199E-002
  0.13414999999999999         -5.7019993347762761E-002
  0.13500000000000001         -6.2775486197873903E-002
  0.13584999999999997         -6.8131219520225175E-002
  0.13669999999999999         -7.3047005779372218E-002
  0.13755000000000001         -7.7486724980943861E-002
  0.13839999999999997         -8.1418712595766787E-002
  0.13924999999999998         -8.4815996270144481E-002
  0.14010000000000000         -8.7656601701361525E-002
  0.14094999999999996         -8.9923769407451989E-002
  0.14179999999999998         -9.1605993714387643E-002
  0.14265000000000000         -9.2697116786674874E-002
  0.14350000000000002         -9.3196350405147871E-002
  0.14434999999999998         -9.3108137647026329E-002
  0.14520000000000000         -9.2442068740724109E-002
  0.14605000000000001         -9.1212720451225845E-002
  0.14689999999999998         -8.9439410739543673E-002
  0.14774999999999999         -8.7145919319020618E-002
  0.14860000000000001         -8.4360123700895434E-002
  0.14944999999999997         -8.1113624623758721E-002
  0.15029999999999999         -7.7441384439912997E-002
  0.15115000000000001         -7.3381290716414693E-002
  0.15199999999999997         -6.8973664842439927E-002
  0.15284999999999999         -6.4260810231703283E-002
  0.15370000000000000         -5.9286595033334014E-002
  0.15454999999999997         -5.4095884661477606E-002
  0.15539999999999998         -4.8734100206618530E-002
  0.15625000000000000         -4.3246746351323168E-002
  0.15709999999999996         -3.7678934826313099E-002
  0.15794999999999998         -3.2074976584779057E-002
  0.15880000000000000         -2.6477919258051721E-002
  0.15965000000000001         -2.0929178959789380E-002
  0.16049999999999998         -1.5468192663893671E-002
  0.16134999999999999         -1.0132092195559569E-002
  0.16220000000000001         -4.9554455686498002E-003
  0.16304999999999997          2.9990946270727278E-005
  0.16389999999999999          4.7954367335709853E-003
  0.16475000000000001          9.3152656161266077E-003
  0.16559999999999997          1.3567142580110481E-002
  0.16644999999999999          1.7532045485400952E-002
  0.16730000000000000          2.1194359316539728E-002
  0.16814999999999997          2.4541840696000201E-002
  0.16899999999999998          2.7565631010505388E-002
  0.16985000000000000          3.0260117513635897E-002
  0.17069999999999996          3.2622814632618291E-002
  0.17154999999999998          3.4654304763236610E-002
  0.17240000000000000          3.6357974264050921E-002
  0.17325000000000002          3.7739836556506076E-002
  0.17409999999999998          3.8808355072542600E-002
  0.17494999999999999          3.9574205261252229E-002
  0.17580000000000001          4.0050028667440382E-002
  0.17664999999999997          4.0250185628344634E-002
  0.17749999999999999          4.0190546906780276E-002
  0.17835000000000001          3.9888206907628454E-002
  0.17919999999999997          3.9361266234784066E-002
  0.18004999999999999          3.8628605216791803E-002
  0.18090000000000001          3.7709643429830630E-002
  0.18174999999999997          3.6624091733572138E-002
  0.18259999999999998          3.5391756413000054E-002
  0.18345000000000000          3.4032341091052888E-002
  0.18429999999999996          3.2565229710641394E-002
  0.18514999999999998          3.1009324277109215E-002
  0.18600000000000000          2.9382887883375446E-002
  0.18684999999999996          2.7703430847906337E-002
  0.18769999999999998          2.5987578133066472E-002
  0.18855000000000000          2.4250995720548001E-002
  0.18940000000000001          2.2508297051677922E-002
  0.19024999999999997          2.0772988394461258E-002
  0.19109999999999999          1.9057429477447083E-002
  0.19195000000000001          1.7372784323473344E-002
  0.19279999999999997          1.5729015826536692E-002
  0.19364999999999999          1.4134867958742397E-002
  0.19450000000000001          1.2597877071729394E-002
  0.19534999999999997          1.1124411692149790E-002
  0.19619999999999999          9.7197100009221576E-003
  0.19705000000000000          8.3879355517485245E-003
  0.19789999999999996          7.1322377413645301E-003
  0.19874999999999998          5.9548176673884009E-003
  0.19960000000000000          4.8569925408098649E-003
  0.20044999999999996          3.8392631011701251E-003
  0.20129999999999998          2.9013861895848649E-003
  0.20215000000000000          2.0424382144967508E-003
  0.20300000000000001          1.2608944806803443E-003
  0.20384999999999998          5.5469003269517213E-004
  0.20469999999999999         -7.8710558153990539E-005
  0.20555000000000001         -6.4223883898300227E-004
  0.20639999999999997         -1.1391426778198130E-003
  0.20724999999999999         -1.5729233282308103E-003
  0.20810000000000001         -1.9472634680316884E-003
  0.20894999999999997         -2.2659674261123653E-003
  0.20979999999999999         -2.5329105227152749E-003
  0.21065000000000000         -2.7519942724456769E-003
  0.21149999999999997         -2.9271021692239786E-003
  0.21234999999999998         -3.0620693728179446E-003
  0.21320000000000000         -3.1606488951312272E-003
  0.21404999999999996         -3.2264856041974051E-003
  0.21489999999999998         -3.2630828451587109E-003
  0.21575000000000000         -3.2737820972451263E-003
  0.21659999999999996         -3.2617485757816022E-003
  0.21744999999999998         -3.2299533377720324E-003
  0.21829999999999999         -3.1811739260178122E-003
  0.21915000000000001         -3.1179880316961409E-003
  0.21999999999999997         -3.0427666435198625E-003
  0.22084999999999999         -2.9576829673263550E-003
  0.22170000000000001         -2.8647164386659896E-003
  0.22254999999999997         -2.7656564346211416E-003
  0.22339999999999999         -2.6621211114461170E-003
  0.22425000000000000         -2.5555560700026977E-003
  0.22509999999999997         -2.4472443624471256E-003
  0.22594999999999998         -2.3383147488081927E-003
  0.22680000000000000         -2.2297500126547964E-003
  0.22764999999999996         -2.1224015039289180E-003
  0.22849999999999998         -2.0169888185576032E-003
  0.22935000000000000         -1.9141034309796750E-003
  0.23019999999999996         -1.8142165122347871E-003
  0.23104999999999998         -1.7176900983324585E-003
  0.23190000000000000         -1.6247877481485101E-003
  0.23275000000000001         -1.5356873711249771E-003
  0.23359999999999997         -1.4504991227733835E-003
  0.23444999999999999         -1.3692796112306114E-003
  0.23530000000000001         -1.2920489813252269E-003
  0.23614999999999997         -1.2188055865323391E-003
  0.23699999999999999         -1.1495293201602267E-003
  0.23785000000000001         -1.0841804868342063E-003
  0.23869999999999997         -1.0226980624839566E-003
  0.23954999999999999         -9.6499317290581242E-004
  0.24040000000000000         -9.1094439132673351E-004
  0.24124999999999996         -8.6039980742647613E-004
  0.24209999999999998         -8.1317920387606862E-004
  0.24295000000000000         -7.6908258995081512E-004
  0.24379999999999996         -7.2790786327734411E-004
  0.24464999999999998         -6.8946075235638989E-004
  0.24550000000000000         -6.5356452848456962E-004
  0.24634999999999996         -6.2006560758157668E-004
  0.24719999999999998         -5.8883097511191953E-004
  0.24804999999999999         -5.5974401558535672E-004
  0.24890000000000001         -5.3269313463579664E-004
  0.24974999999999997         -5.0756589259383920E-004
  0.25059999999999999         -4.8424621606535823E-004
  0.25145000000000001         -4.6261005757955453E-004
  0.25229999999999997         -4.4253012287780614E-004
  0.25314999999999999         -4.2388164669494074E-004
  0.25400000000000000         -4.0654659581526478E-004
  0.25484999999999997         -3.9041991294689503E-004
  0.25569999999999998         -3.7541088229682833E-004
  0.25655000000000000         -3.6144382113656410E-004
  0.25739999999999996         -3.4845578124672710E-004
  0.25824999999999998         -3.3639155051074139E-004
  0.25910000000000000         -3.2520238215049638E-004
  0.25994999999999996         -3.1484074350300465E-004
  0.26079999999999998         -3.0525699313831481E-004
  0.26164999999999999         -2.9639825736454929E-004
  0.26249999999999996         -2.8820692780623548E-004
  0.26334999999999997         -2.8061859561553671E-004
  0.26419999999999999         -2.7356104596703722E-004
  0.26505000000000001         -2.6695469782108821E-004
  0.26589999999999997         -2.6071338236035045E-004
  0.26674999999999999         -2.5474940306247822E-004
  0.26760000000000000         -2.4897823903003639E-004
  0.26844999999999997         -2.4332306817542162E-004
  0.26929999999999998         -2.3771974329764572E-004
  0.27015000000000000         -2.3211662403688292E-004
  0.27099999999999996         -2.2647288791427024E-004
  0.27184999999999998         -2.2075387840494608E-004
  0.27270000000000000         -2.1492257668345662E-004
  0.27354999999999996         -2.0893550567576888E-004
  0.27439999999999998         -2.0274014500524617E-004
  0.27524999999999999         -1.9627538641745168E-004
  0.27609999999999996         -1.8947942442808135E-004
  0.27694999999999997         -1.8229848556164992E-004
  0.27779999999999999         -1.7469796330791350E-004
  0.27865000000000001         -1.6667107885952426E-004
  0.27949999999999997         -1.5824285302237727E-004
  0.28034999999999999         -1.4946954848007299E-004
  0.28120000000000001         -1.4043036183786841E-004
  0.28204999999999997         -1.3121683414413996E-004
  0.28289999999999998         -1.2192197624814524E-004
  0.28375000000000000         -1.1262966282881483E-004
  0.28459999999999996         -1.0340829150283208E-004
  0.28544999999999998         -9.4310387636718334E-005
  0.28630000000000000         -8.5377703162164243E-005
  0.28714999999999996         -7.6648197433194036E-005
  0.28799999999999998         -6.8164514876653363E-005
  0.28885000000000000         -5.9981652712875550E-005
  0.28969999999999996         -5.2170726391646117E-005
  0.29054999999999997         -4.4817118441406911E-005
  0.29139999999999999         -3.8015775982000574E-005
  0.29224999999999995         -3.1863109265330416E-005
  0.29309999999999997         -2.6446056134577283E-005
  0.29394999999999999         -2.1833235128673434E-005
  0.29480000000000001         -1.8067560078992016E-005
  0.29564999999999997         -1.5162486148118223E-005
  0.29649999999999999         -1.3103525185334240E-005
  0.29735000000000000         -1.1853132969027600E-005
  0.29819999999999997         -1.1358534306936361E-005
  0.29904999999999998         -1.1560881544932622E-005
  0.29990000000000000         -1.2404253445789500E-005
  0.30074999999999996         -1.3840398393671361E-005
  0.30159999999999998         -1.5829169643939091E-005
  0.30245000000000000         -1.8335484102406328E-005
  0.30329999999999996         -2.1322514492065003E-005
  0.30414999999999998         -2.4743114322363035E-005
  0.30499999999999999         -2.8532893424659213E-005
  0.30584999999999996         -3.2608340347261486E-005
  0.30669999999999997         -3.6869948177251492E-005
  0.30754999999999999         -4.1210090624481810E-005
  0.30840000000000001         -4.5524809665577361E-005
  0.30924999999999997         -4.9726817022999329E-005
  0.31009999999999999         -5.3755280657341093E-005
  0.31095000000000000         -5.7579420195873782E-005
  0.31179999999999997         -6.1194721027331628E-005
  0.31264999999999998         -6.4612896227356513E-005
  0.31350000000000000         -6.7848359511197117E-005
  0.31434999999999996         -7.0904073674401185E-005
  0.31519999999999998         -7.3762131161553165E-005
  0.31605000000000000         -7.6381304338051531E-005
  0.31689999999999996         -7.8702790288407259E-005
  0.31774999999999998         -8.0661778343176443E-005
  0.31859999999999999         -8.2201587215290412E-005
  0.31944999999999996         -8.3286408633176872E-005
  0.32029999999999997         -8.3908201804203811E-005
  0.32114999999999999         -8.4085523516111096E-005
  0.32199999999999995         -8.3854763815431857E-005
  0.32284999999999997         -8.3256799035803008E-005
  0.32369999999999999         -8.2322609457832321E-005
  0.32455000000000001         -8.1063035563810678E-005
  0.32539999999999997         -7.9464731841784179E-005
  0.32624999999999998         -7.7494633004855618E-005
  0.32710000000000000         -7.5109883411584867E-005
  0.32794999999999996         -7.2270922973841450E-005
  0.32879999999999998         -6.8953700044357052E-005
  0.32965000000000000         -6.5157005948107105E-005
  0.33049999999999996         -6.0903141109631842E-005
  0.33134999999999998         -5.6232779156634109E-005
  0.33220000000000000         -5.1195124129870445E-005
  0.33304999999999996         -4.5837791683800990E-005
  0.33389999999999997         -4.0200416643056557E-005
  0.33474999999999999         -3.4312421780079090E-005
  0.33559999999999995         -2.8196963812296804E-005
  0.33644999999999997         -2.1879046044949468E-005
  0.33729999999999999         -1.5395309184269988E-005
  0.33815000000000001         -8.8012306500239089E-006
  0.33899999999999997         -2.1741215859855227E-006
  0.33984999999999999          4.3891852310295265E-006
  0.34070000000000000          1.0779625615733004E-005
  0.34154999999999996          1.6886190830214851E-005
  0.34239999999999998          2.2605646135778655E-005