 -0.12000000000000000          0.0000000000000000
 -0.11914999999999999          0.0000000000000000
 -0.11830000000000000          0.0000000000000000
 -0.11745000000000000          0.0000000000000000
 -0.11660000000000000          0.0000000000000000
 -0.11574999999999999          0.0000000000000000
 -0.11490000000000000          1.4828609909755075E-021
 -0.11405000000000000          1.6366577598422132E-020
 -0.11320000000000000          8.7726285593509937E-020
 -0.11234999999999999          2.9193135825031377E-019
 -0.11150000000000000          6.0896551330806555E-019
 -0.11065000000000000          4.8761141653089636E-019
 -0.10979999999999999         -1.8927404703968265E-018
 -0.10894999999999999         -1.0000398959210292E-017
 -0.10810000000000000         -2.7226822319330653E-017
 -0.10725000000000000         -5.0688442134208478E-017
 -0.10639999999999999         -5.9808293588627831E-017
 -0.10554999999999999         -4.6544305852912553E-018
 -0.10470000000000000          1.9145817452771982E-016
 -0.10385000000000000          5.9237434151257611E-016
 -0.10299999999999999          1.1537886292368788E-015
 -0.10214999999999999          1.5826971116082458E-015
 -0.10130000000000000          1.2215952753800052E-015
 -0.10045000000000000         -8.9945862704203358E-016
  -9.9599999999999994E-002    -5.6609837348141129E-015
  -9.8750000000000004E-002    -1.2988292395290609E-014
  -9.7900000000000001E-002    -2.0645460747720401E-014
  -9.7049999999999997E-002    -2.3216935863970587E-014
  -9.6199999999999994E-002    -1.2243949196797009E-014
  -9.5349999999999990E-002     2.1323705980557062E-014
  -9.4500000000000001E-002     8.1619898124561733E-014
  -9.3649999999999997E-002     1.5986810671646827E-013
  -9.2799999999999994E-002     2.2660690619716123E-013
  -9.1950000000000004E-002     2.2915814560446623E-013
  -9.1100000000000000E-002     1.0059472659972905E-013
  -9.0249999999999997E-002    -2.1498058184232957E-013
  -8.9399999999999993E-002    -7.2138575294673086E-013
  -8.8549999999999990E-002    -1.3232400023429238E-012
  -8.7700000000000000E-002    -1.7931755011645789E-012
  -8.6849999999999997E-002    -1.7813854867576789E-012
  -8.5999999999999993E-002    -8.9396950199516508E-013
  -8.5150000000000003E-002     1.1493898885807569E-012
  -8.4300000000000000E-002     4.2994300138292647E-012
  -8.3449999999999996E-002     7.9654628323054119E-012
  -8.2600000000000007E-002     1.0907829964331008E-011
  -8.1749999999999989E-002     1.1348911015309951E-011
  -8.0900000000000000E-002     7.3877968717212195E-012
  -8.0049999999999996E-002    -2.2792286855819017E-012
  -7.9199999999999993E-002    -1.7459479269560513E-011
  -7.8350000000000003E-002    -3.5656660049370618E-011
  -7.7499999999999999E-002    -5.1731529542334379E-011
  -7.6649999999999996E-002    -5.8410707548215925E-011
  -7.5800000000000006E-002    -4.7878612559509284E-011
  -7.4949999999999989E-002    -1.4382343738115834E-011
  -7.4099999999999999E-002     4.2637549727993102E-011
  -7.3249999999999996E-002     1.1579298480814950E-010
  -7.2399999999999992E-002     1.8853117658478552E-010
  -7.1550000000000002E-002     2.3655528273094292E-010
  -7.0699999999999999E-002     2.3250567036949729E-010
  -6.9849999999999995E-002     1.5364210249914362E-010
  -6.9000000000000006E-002    -8.8554349459615609E-012
  -6.8149999999999988E-002    -2.4140757418446252E-010
  -6.7299999999999999E-002    -5.0342691768740548E-010
  -6.6449999999999995E-002    -7.2943700111843648E-010
  -6.5599999999999992E-002    -8.3959340954209782E-010
  -6.4750000000000002E-002    -7.5818882419368883E-010
  -6.3899999999999998E-002    -4.3712824132713492E-010
  -6.3049999999999995E-002     1.2106469840946922E-010
  -6.2199999999999998E-002     8.4759759238972879E-010
  -6.1350000000000002E-002     1.6057713111879577E-009
  -6.0499999999999998E-002     2.2077507253753599E-009
  -5.9650000000000002E-002     2.4500278463265970E-009
  -5.8799999999999998E-002     2.1626674169534198E-009
  -5.7950000000000002E-002     1.2624283723784422E-009
  -5.7099999999999998E-002    -2.0349645598204335E-010
  -5.6249999999999994E-002    -2.0367813825185214E-009
  -5.5400000000000005E-002    -3.9007637221445056E-009
  -5.4550000000000001E-002    -5.3705372578131000E-009
  -5.3699999999999998E-002    -6.0152898433733893E-009
  -5.2849999999999994E-002    -5.4986811495382614E-009
  -5.2000000000000005E-002    -3.6760485151673184E-009
  -5.1150000000000001E-002    -6.6444770086411703E-010
  -5.0299999999999997E-002     3.1356554181893928E-009
  -4.9449999999999994E-002     7.0797901989183659E-009
  -4.8600000000000004E-002     1.0380015980795868E-008
  -4.7750000000000001E-002     1.2252242079875932E-008
  -4.6899999999999997E-002     1.2083320433548590E-008
  -4.6049999999999994E-002     9.5830738388119273E-009
  -4.5200000000000004E-002     4.8859760032167587E-009
  -4.4350000000000001E-002    -1.4251623377112183E-009
  -4.3499999999999997E-002    -8.3864156082775318E-009
  -4.2649999999999993E-002    -1.4804794827861322E-008
  -4.1800000000000004E-002    -1.9469855050693531E-008
  -4.0950000000000000E-002    -2.1384761972560536E-008
  -4.0099999999999997E-002    -1.9969796127641758E-008
  -3.9249999999999993E-002    -1.5194597744741793E-008
  -3.8400000000000004E-002    -7.6087886548371373E-009
  -3.7550000000000000E-002     1.7386000847368882E-009
  -3.6699999999999997E-002     1.1476587251490251E-008
  -3.5850000000000007E-002     2.0150975920850428E-008
  -3.5000000000000003E-002     2.6474978842963540E-008
  -3.4150000000000000E-002     2.9539900310498111E-008
  -3.3299999999999996E-002     2.8943730411307828E-008
  -3.2450000000000007E-002     2.4815357419219332E-008
  -3.1600000000000003E-002     1.7737305830335139E-008
  -3.0750000000000000E-002     8.5941077466592999E-009
  -2.9899999999999996E-002    -1.6098431893080848E-009
  -2.9050000000000006E-002    -1.1914239189311154E-008
  -2.8200000000000003E-002    -2.1508730576019969E-008
  -2.7349999999999999E-002    -2.9760930974055873E-008
  -2.6499999999999996E-002    -3.6172645960812082E-008
  -2.5650000000000006E-002    -4.0294658979864291E-008
  -2.4800000000000003E-002    -4.1645581157768836E-008
  -2.3949999999999999E-002    -3.9681289262515481E-008
  -2.3099999999999996E-002    -3.3847352361705361E-008
  -2.2250000000000006E-002    -2.3720664405395775E-008
  -2.1400000000000002E-002    -9.2154740622213188E-009
  -2.0549999999999999E-002     9.1978293061233592E-009
  -1.9699999999999995E-002     3.0327472585570045E-008
  -1.8850000000000006E-002     5.2212041696748028E-008
  -1.8000000000000002E-002     7.2232019160853804E-008
  -1.7149999999999999E-002     8.7389849699563213E-008
  -1.6299999999999995E-002     9.4728376028529248E-008
  -1.5450000000000005E-002     9.1823178833201559E-008
  -1.4600000000000002E-002     7.7263069776807319E-008
  -1.3749999999999998E-002     5.1029229568111738E-008
  -1.2899999999999995E-002     1.4698580568688780E-008
  -1.2050000000000005E-002    -2.8575363677987074E-008
  -1.1200000000000002E-002    -7.4314602082491930E-008
  -1.0349999999999998E-002    -1.1717762029475880E-007
  -9.5000000000000084E-003    -1.5157545201047267E-007
  -8.6500000000000049E-003    -1.7236952498086208E-007
  -7.8000000000000014E-003    -1.7556705162970399E-007
  -6.9499999999999978E-003    -1.5892866814227204E-007
  -6.1000000000000082E-003    -1.2240785294951611E-007
  -5.2500000000000047E-003    -6.8355105290742977E-008
  -4.4000000000000011E-003    -1.4389431998729479E-009
  -3.5499999999999976E-003     7.1734369654068877E-008
  -2.7000000000000079E-003     1.4328284778697657E-007
  -1.8500000000000044E-003     2.0493146635217345E-007
  -1.0000000000000009E-003     2.4901174557560876E-007
  -1.4999999999999736E-004     2.6944529073164237E-007
   6.9999999999999230E-004     2.6256751010751148E-007
   1.5499999999999958E-003     2.2766422091187993E-007
   2.3999999999999994E-003     1.6713570533401475E-007
   3.2500000000000029E-003     8.6264685129072529E-008
   4.0999999999999925E-003    -7.3688214757443329E-009
   4.9499999999999961E-003    -1.0472631471732729E-007
   5.7999999999999996E-003    -1.9627257700483881E-007
   6.6499999999999893E-003    -2.7292807144815469E-007
   7.5000000000000067E-003    -3.2690818590625436E-007
   8.3499999999999963E-003    -3.5238907822404131E-007
   9.1999999999999860E-003    -3.4598472760969582E-007
   1.0050000000000003E-002    -3.0704568353683693E-007
   1.0899999999999993E-002    -2.3779696756589475E-007
   1.1750000000000010E-002    -1.4330996362939575E-007
   1.2600000000000000E-002    -3.1278197689101977E-008
   1.3449999999999990E-002     8.8453834426400448E-008
   1.4300000000000007E-002     2.0465059718293920E-007
   1.5149999999999997E-002     3.0573242657820712E-007
   1.5999999999999986E-002     3.8103710405702962E-007
   1.6850000000000004E-002     4.2214131148262199E-007
   1.7699999999999994E-002     4.2402687457555731E-007
   1.8549999999999983E-002     3.8586188349583561E-007
   1.9400000000000001E-002     3.1121396522897950E-007
   2.0249999999999990E-002     2.0761823498999019E-007
   2.1100000000000008E-002     8.5560746392530459E-008
   2.1949999999999997E-002    -4.2928265951506885E-008
   2.2799999999999987E-002    -1.6579227097204692E-007
   2.3650000000000004E-002    -2.7228493596974193E-007
   2.4499999999999994E-002    -3.5390492659571440E-007
   2.5349999999999984E-002    -4.0483859322571284E-007
   2.6200000000000001E-002    -4.2196994593871725E-007
   2.7049999999999991E-002    -4.0463263463650462E-007
   2.7900000000000008E-002    -3.5432448801804523E-007
   2.8749999999999998E-002    -2.7455731247646311E-007
   2.9599999999999987E-002    -1.7089616985944839E-007
   3.0450000000000005E-002    -5.1092416790566825E-008
   3.1299999999999994E-002     7.4905485303556909E-008
   3.2149999999999984E-002     1.9531947593700119E-007
   3.3000000000000002E-002     2.9747469122697873E-007
   3.3849999999999991E-002     3.6931840979863372E-007
   3.4700000000000009E-002     4.0133098248551412E-007
   3.5549999999999998E-002     3.8844018925442016E-007
   3.6399999999999988E-002     3.3145026741605637E-007
   3.7250000000000005E-002     2.3753621270592270E-007
   3.8099999999999995E-002     1.1953757647418942E-007
   3.8949999999999985E-002    -5.9278229834588213E-009
   3.9800000000000002E-002    -1.2120141031965116E-007
   4.0649999999999992E-002    -2.1060622356360097E-007
   4.1500000000000009E-002    -2.6309128026902650E-007
   4.2349999999999999E-002    -2.7391897921358371E-007
   4.3199999999999988E-002    -2.4505602245519923E-007
   4.4050000000000006E-002    -1.8425687090769412E-007
   4.4899999999999995E-002    -1.0315017010182293E-007
   4.5749999999999985E-002    -1.4858899843989934E-008
   4.6600000000000003E-002     6.8256591561218248E-008
   4.7449999999999992E-002     1.3625513882202178E-007
   4.8299999999999982E-002     1.8242954108411580E-007
   4.9149999999999999E-002     2.0331886080563576E-007
   4.9999999999999989E-002     1.9818764081577398E-007
   5.0850000000000006E-002     1.6834861813519126E-007
   5.1699999999999996E-002     1.1666432642737228E-007
   5.2549999999999986E-002     4.7396681355825894E-008
   5.3400000000000003E-002    -3.3648093428341793E-008
   5.4249999999999993E-002    -1.1892157107666068E-007
   5.5099999999999982E-002    -1.9921172430678210E-007
   5.5950000000000000E-002    -2.6427100977996306E-007
   5.6799999999999989E-002    -3.0408421038751252E-007
   5.7650000000000007E-002    -3.1062094506566750E-007
   5.8499999999999996E-002    -2.7968902606999573E-007
   5.9349999999999986E-002    -2.1238258454833086E-007
   6.0200000000000004E-002    -1.1565004202337381E-007
   6.1049999999999993E-002    -1.6932460407871995E-009
   6.1899999999999983E-002     1.1379835513371409E-007
   6.2750000000000000E-002     2.1426785127421346E-007
   6.3599999999999990E-002     2.8520822381951487E-007
   6.4450000000000007E-002     3.1673434557250993E-007
   6.5299999999999997E-002     3.0524009960607546E-007
   6.6149999999999987E-002     2.5380228154315207E-007
   6.7000000000000004E-002     1.7129845983641552E-007
   6.7849999999999994E-002     7.0507623232510776E-008
   6.8699999999999983E-002    -3.4305356482964140E-008
   6.9550000000000001E-002    -1.2976382300208538E-007
   7.0399999999999990E-002    -2.0521995073418154E-007
   7.1249999999999980E-002    -2.5376838551389282E-007
   7.2099999999999997E-002    -2.7239727617460170E-007
   7.2949999999999987E-002    -2.6143250433414588E-007
   7.3800000000000004E-002    -2.2358826847183589E-007
   7.4649999999999994E-002    -1.6296509250298377E-007
   7.5499999999999984E-002    -8.4268108251972203E-008
   7.6350000000000001E-002     7.6334321094680003E-009
   7.7199999999999991E-002     1.0782841773136711E-007
   7.8049999999999981E-002     2.1130670196712443E-007
   7.8899999999999998E-002     3.1293307527313061E-007
   7.9749999999999988E-002     4.0761883551347476E-007
   8.0600000000000005E-002     4.9078438217094863E-007
   8.1449999999999995E-002     5.5910280927545522E-007
   8.2299999999999984E-002     6.1139045899959448E-007
   8.3150000000000002E-002     6.4949526215907179E-007
   8.3999999999999991E-002     6.7897884178803751E-007
   8.4849999999999981E-002     7.0939317418344611E-007
   8.5699999999999998E-002     7.5411918160325530E-007
   8.6549999999999988E-002     8.2977689774757881E-007
   8.7400000000000005E-002     9.5523511501555892E-007
   8.8249999999999995E-002     1.1504061260488649E-006
   8.9099999999999985E-002     1.4350275041942633E-006
   8.9950000000000002E-002     1.8274890859796666E-006
   9.0799999999999992E-002     2.3438111932845122E-006
   9.1649999999999981E-002     2.9968800019022754E-006
   9.2499999999999999E-002     3.7959526527650227E-006
   9.3349999999999989E-002     4.7466150655090206E-006
   9.4200000000000006E-002     5.8513652108751030E-006
   9.5049999999999996E-002     7.1107875191765495E-006
   9.5899999999999985E-002     8.5256148869473032E-006
   9.6750000000000003E-002     1.0099461024671387E-005
   9.7599999999999992E-002     1.1842283172448880E-005
   9.8449999999999982E-002     1.3773888196026568E-005
   9.9299999999999999E-002     1.5927025561630346E-005
  0.10014999999999999          1.8348777664133021E-005
  0.10099999999999998          2.1100264541652559E-005
  0.10185000000000000          2.4254103348601939E-005
  0.10269999999999999          2.7889770166551546E-005
  0.10355000000000000          3.2087764610043309E-005
  0.10439999999999999          3.6923472928626259E-005
  0.10524999999999998          4.2462378199712508E-005
  0.10610000000000000          4.8757155614579308E-005
  0.10694999999999999          5.5849083593225597E-005
  0.10779999999999998          6.3771634646874912E-005
  0.10865000000000000          7.2556275563009288E-005
  0.10949999999999999          8.2240310631585665E-005
  0.11035000000000000          9.2873131349893869E-005
  0.11119999999999999          1.0451932690903467E-004
  0.11204999999999998          1.1726001076225148E-004
  0.11290000000000000          1.3118959316593844E-004
  0.11374999999999999          1.4640969481967089E-004
  0.11459999999999998          1.6302299765146852E-004
  0.11545000000000000          1.8112683253246702E-004
  0.11629999999999999          2.0080698482936876E-004
  0.11715000000000000          2.2213611078772364E-004
  0.11799999999999999          2.4517432156009959E-004
  0.11884999999999998          2.6997185262392338E-004
  0.11970000000000000          2.9657228385821286E-004
  0.12054999999999999          3.2501194530107851E-004
  0.12139999999999998          3.5532002689683172E-004
  0.12225000000000000          3.8751537901710563E-004
  0.12309999999999999          4.2159972520913096E-004
  0.12395000000000000          4.5755616315750874E-004
  0.12479999999999999          4.9534010411367605E-004
  0.12564999999999998          5.3487402446904134E-004
  0.12650000000000000          5.7604103433797887E-004
  0.12734999999999999          6.1868912572313477E-004
  0.12819999999999998          6.6263362080735196E-004
  0.12905000000000000          7.0765283991257929E-004
  0.12989999999999999          7.5348589776420437E-004
  0.13074999999999998          7.9982741064019798E-004
  0.13159999999999999          8.4633434661872257E-004
  0.13245000000000001          8.9262172330339474E-004
  0.13329999999999997          9.3825719921431829E-004
  0.13414999999999999          9.8277092517835732E-004
  0.13500000000000001          1.0256558321416389E-003
  0.13584999999999997          1.0663651678774033E-003
  0.13669999999999999          1.1043121616038723E-003
  0.13755000000000001          1.1388804515604757E-003
  0.13839999999999997          1.1694104606961503E-003
  0.13924999999999998          1.1951901885405758E-003
  0.14010000000000000          1.2154687859953913E-003
  0.14094999999999996          1.2294516828159012E-003
  0.14179999999999998          1.2363081200604965E-003
  0.14265000000000000          1.2351867195733713E-003
  0.14350000000000002          1.2252345593632803E-003
  0.14434999999999998          1.2056073525352196E-003
  0.14520000000000000          1.1754878208457581E-003
  0.14605000000000001          1.1341164267151768E-003
  0.14689999999999998          1.0807753865051785E-003
  0.14774999999999999          1.0148118175800005E-003
  0.14860000000000001          9.3566557172732176E-004
  0.14944999999999997          8.4284625528796119E-004
  0.15029999999999999          7.3597849216088321E-004
  0.15115000000000001          6.1477750271123142E-004
  0.15199999999999997          4.7902936004694073E-004
  0.15284999999999999          3.2866840271982695E-004
  0.15370000000000000          1.6375286777456160E-004
  0.15454999999999997         -1.5506232027516995E-005
  0.15539999999999998         -2.0869924630772418E-004
  0.15625000000000000         -4.1522022962113791E-004
  0.15709999999999996         -6.3426588617064355E-004
  0.15794999999999998         -8.6488688295377068E-004
  0.15880000000000000         -1.1059336022484687E-003
  0.15965000000000001         -1.3560561354780767E-003
  0.16049999999999998         -1.6137857637028876E-003
  0.16134999999999999         -1.8774641599625982E-003
  0.16220000000000001         -2.1452763945605567E-003
  0.16304999999999997         -2.4152716905984748E-003
  0.16389999999999999         -2.6853412342284179E-003
  0.16475000000000001         -2.9532245299791777E-003
  0.16559999999999997         -3.2165463750845500E-003
  0.16644999999999999         -3.4728905151398485E-003
  0.16730000000000000         -3.7197818945178571E-003
  0.16814999999999997         -3.9546942668118590E-003
  0.16899999999999998         -4.1751225713761754E-003
  0.16985000000000000         -4.3785795179282503E-003
  0.17069999999999996         -4.5626256652247866E-003
  0.17154999999999998         -4.7248826010048367E-003
  0.17240000000000000         -4.8631001569999395E-003
  0.17325000000000002         -4.9751578188668849E-003
  0.17409999999999998         -5.0590706683085549E-003
  0.17494999999999999         -5.1130748042900534E-003
  0.17580000000000001         -5.1356135890670753E-003
  0.17664999999999997         -5.1253873760937962E-003
  0.17749999999999999         -5.0813665570944430E-003
  0.17835000000000001         -5.0027907543100675E-003
  0.17919999999999997         -4.8892441727766299E-003
  0.18004999999999999         -4.7406109556016231E-003
  0.18090000000000001         -4.5570940257480888E-003
  0.18174999999999997         -4.3392179153998872E-003
  0.18259999999999998         -4.0878535030793323E-003
  0.18345000000000000         -3.8041833400619873E-003
  0.18429999999999996         -3.4896938941065348E-003
  0.18514999999999998         -3.1461902967650271E-003
  0.18600000000000000         -2.7758062793986136E-003
  0.18684999999999996         -2.3809416167783898E-003
  0.18769999999999998         -1.9642298793123825E-003
  0.18855000000000000         -1.5285678763669753E-003
  0.18940000000000001         -1.0770588753498006E-003
  0.19024999999999997         -6.1299774988325391E-004
  0.19109999999999999         -1.3984462395245841E-004
  0.19195000000000001          3.3886110017585349E-004
  0.19279999999999997          8.1951225655176735E-004
  0.19364999999999999          1.2984982890438459E-003
  0.19450000000000001          1.7721811598377397E-003
  0.19534999999999997          2.2369854388059949E-003
  0.19619999999999999          2.6894313465089187E-003
  0.19705000000000000          3.1261370560795951E-003
  0.19789999999999996          3.5438474999926499E-003
  0.19874999999999998          3.9394328360937547E-003
  0.19960000000000000          4.3099813404527745E-003
  0.20044999999999996          4.6527760906852874E-003
  0.20129999999999998          4.9654284437942635E-003
  0.20215000000000000          5.2458793100499338E-003
  0.20300000000000001          5.4923323066195361E-003
  0.20384999999999998          5.7033037375474544E-003
  0.20469999999999999          5.8776357879823859E-003
  0.20555000000000001          6.0145089145671460E-003
  0.20639999999999997          6.1134093986610601E-003
  0.20724999999999999          6.1742130360740747E-003
  0.20810000000000001          6.1970818506589219E-003
  0.20894999999999997          6.1824019029964169E-003
  0.20979999999999999          6.1308935190234753E-003
  0.21065000000000000          6.0435793547628878E-003
  0.21149999999999997          5.9217616442549239E-003
  0.21234999999999998          5.7670783926783908E-003
  0.21320000000000000          5.5813930135917116E-003
  0.21404999999999996          5.3668268908377273E-003
  0.21489999999999998          5.1257537961983827E-003
  0.21575000000000000          4.8606785506451027E-003
  0.21659999999999996          4.5741901971655266E-003
  0.21744999999999998          4.2689433961232278E-003
  0.21829999999999999          3.9476522825809181E-003
  0.21915000000000001          3.6130612155938178E-003
  0.21999999999999997          3.2679131017299191E-003
  0.22084999999999999          2.9149325541204386E-003
  0.22170000000000001          2.5567950340650647E-003
  0.22254999999999997          2.1961664976689085E-003
  0.22339999999999999          1.8356920797722343E-003
  0.22425000000000000          1.4779796186025836E-003
  0.22509999999999997          1.1254937070633321E-003
  0.22594999999999998          7.8060640531531212E-004
  0.22680000000000000          4.4550328259716483E-004
  0.22764999999999996          1.2215086486894397E-004
  0.22849999999999998         -1.8768930938775982E-004
  0.22935000000000000         -4.8248556904327859E-004
  0.23019999999999996         -7.6095000012777934E-004
  0.23104999999999998         -1.0220258724535146E-003
  0.23190000000000000         -1.2648301292080989E-003
  0.23275000000000001         -1.4886218963478569E-003
  0.23359999999999997         -1.6927929378367198E-003
  0.23444999999999999         -1.8768676099404015E-003
  0.23530000000000001         -2.0405361281970510E-003
  0.23614999999999997         -2.1836366328710820E-003
  0.23699999999999999         -2.3062062239153362E-003
  0.23785000000000001         -2.4084783350275325E-003
  0.23869999999999997         -2.4908659480377985E-003
  0.23954999999999999         -2.5539487733194080E-003
  0.24040000000000000         -2.5984709411444348E-003
  0.24124999999999996         -2.6253038282562937E-003
  0.24209999999999998         -2.6354138487820647E-003
  0.24295000000000000         -2.6298298970124849E-003
  0.24379999999999996         -2.6095962527180245E-003
  0.24464999999999998         -2.5757795334585545E-003
  0.24550000000000000         -2.5294924834614184E-003
  0.24634999999999996         -2.4718287989670905E-003
  0.24719999999999998         -2.4039057181617913E-003
  0.24804999999999999         -2.3268425356899047E-003
  0.24890000000000001         -2.2417594446940206E-003
  0.24974999999999997         -2.1497734184483938E-003
  0.25059999999999999         -2.0520059453770383E-003
  0.25145000000000001         -1.9495600160256605E-003
  0.25229999999999997         -1.8435050930254448E-003
  0.25314999999999999         -1.7348837468234516E-003
  0.25400000000000000         -1.6246697146185237E-003
  0.25484999999999997         -1.5137665594670763E-003
  0.25569999999999998         -1.4030174332978463E-003
  0.25655000000000000         -1.2931742842330375E-003
  0.25739999999999996         -1.1848989120156886E-003
  0.25824999999999998         -1.0787783853983448E-003
  0.25910000000000000         -9.7534829125006336E-004
  0.25994999999999996         -8.7509320134835310E-004
  0.26079999999999998         -7.7842228072078133E-004
  0.26164999999999999         -6.8569703492699021E-004
  0.26249999999999996         -5.9722703972349964E-004
  0.26334999999999997         -5.1325232945350859E-004
  0.26419999999999999         -4.3395991697432458E-004
  0.26505000000000001         -3.5946869580225625E-004
  0.26589999999999997         -2.8982971193772743E-004
  0.26674999999999999         -2.2505336660862094E-004
  0.26760000000000000         -1.6511439308816340E-004
  0.26844999999999997         -1.0997443685824697E-004
  0.26929999999999998         -5.9594431424034137E-005
  0.27015000000000000         -1.3919363458805540E-005
  0.27099999999999996          2.7124182296955356E-005
  0.27184999999999998          6.3643709354409874E-005
  0.27270000000000000          9.5793776121789079E-005
  0.27354999999999996          1.2377822614068594E-004
  0.27439999999999998          1.4785629883434055E-004
  0.27524999999999999          1.6833484000361180E-004
  0.27609999999999996          1.8552764417587838E-004
  0.27694999999999997          1.9973549877525218E-004
  0.27779999999999999          2.1121990988489812E-004
  0.27865000000000001          2.2019063786608796E-004
  0.27949999999999997          2.2681871718081007E-004
  0.28034999999999999          2.3125109662943766E-004
  0.28120000000000001          2.3364928503076499E-004
  0.28204999999999997          2.3420631762191866E-004
  0.28289999999999998          2.3314550757937353E-004
  0.28375000000000000          2.3071434410739660E-004
  0.28459999999999996          2.2716295899561707E-004
  0.28544999999999998          2.2272250307383933E-004
  0.28630000000000000          2.1757403089636156E-004
  0.28714999999999996          2.1183081777452397E-004
  0.28799999999999998          2.0554339721603676E-004
  0.28885000000000000          1.9872589229421591E-004
  0.28969999999999996          1.9138271112060894E-004
  0.29054999999999997          1.8354463281337538E-004
  0.29139999999999999          1.7529434539562537E-004
  0.29224999999999995          1.6676161985950668E-004
  0.29309999999999997          1.5811058358965112E-004
  0.29394999999999999          1.4951305922164247E-004
  0.29480000000000001          1.4111299400721293E-004
  0.29564999999999997          1.3299399969086360E-004
  0.29649999999999999          1.2517099411113832E-004
  0.29735000000000000          1.1760013947444473E-004
  0.29819999999999997          1.1020358081916031E-004
  0.29904999999999998          1.0290448951048999E-004
  0.29990000000000000          9.5656713191200805E-005
  0.30074999999999996          8.8464996395664584E-005
  0.30159999999999998          8.1389278726590259E-005
  0.30245000000000000          7.4530273823532147E-005
  0.30329999999999996          6.7998465647447110E-005
  0.30414999999999998          6.1888794390323475E-005
  0.30499999999999999          5.6259368082719562E-005
  0.30584999999999996          5.1125301441546321E-005
  0.30669999999999997          4.6468232353521721E-005
  0.30754999999999999          4.2252339705423271E-005
  0.30840000000000001          3.8441869709159921E-005
  0.30924999999999997          3.5016346543980881E-005
  0.31009999999999999          3.1975076349918925E-005
  0.31095000000000000          2.9329526495927960E-005
  0.31179999999999997          2.7094231122699584E-005
  0.31264999999999998          2.5273448939196914E-005
  0.31350000000000000          2.3856483075703059E-005
  0.31434999999999996          2.2818579109737097E-005
  0.31519999999999998          2.2128210942963261E-005
  0.31605000000000000          2.1759542779994432E-005
  0.31689999999999996          2.1699574787259933E-005
  0.31774999999999998          2.1945738063548684E-005
  0.31859999999999999          2.2497130656823571E-005
  0.31944999999999996          2.3338949844061991E-005
  0.32029999999999997          2.4426387789708629E-005
  0.32114999999999999          2.5681136249991582E-005
  0.32199999999999995          2.7000361097096654E-005
  0.32284999999999997          2.8273343607496180E-005
  0.32369999999999999          2.9402917622822055E-005
  0.32455000000000001          3.0330722469226038E-005
  0.32539999999999997          3.1053497047270099E-005
  0.32624999999999998          3.1620586743555054E-005
  0.32710000000000000          3.2114787866600273E-005
  0.32794999999999996          3.2622085079185600E-005
  0.32879999999999998          3.3200872708028450E-005
  0.32965000000000000          3.3858249983371575E-005
  0.33049999999999996          3.4544937238305709E-005
  0.33134999999999998          3.5167956895830921E-005
  0.33220000000000000          3.5616820434009690E-005
  0.33304999999999996          3.5797751047404894E-005
  0.33389999999999997          3.5661048553843139E-005
  0.33474999999999999          3.5213586663237687E-005
  0.33559999999999995          3.4515624755500728E-005
  0.33644999999999997          3.3661882366079130E-005
  0.33729999999999999          3.2750952465988075E-005
  0.33815000000000001          3.1857944070818757E-005
  0.33899999999999997          3.1016435868872146E-005
  0.33984999999999999          3.0214355945411416E-005
  0.34070000000000000          2.9404609842700961E-005
  0.34154999999999996          2.8522955996208651E-005
  0.34239999999999998          2.7511005914062708E-005
  0.34325000000000000          2.6331558588598918E-005