-1.200000e-01 0.000000e+00
-1.191500e-01 0.000000e+00
-1.183000e-01 0.000000e+00
-1.174500e-01 0.000000e+00
-1.166000e-01 0.000000e+00
-1.157500e-01 0.000000e+00
-1.149000e-01 0.000000e+00
-1.140500e-01 0.000000e+00
-1.132000e-01 0.000000e+00
-1.123500e-01 9.810394e-33
-1.115000e-01 1.521786e-31
-1.106500e-01 1.202699e-30
-1.098000e-01 6.401240e-30
-1.089500e-01 2.550521e-29
-1.081000e-01 7.964492e-29
-1.072500e-01 1.961518e-28
-1.064000e-01 3.609500e-28
-1.055500e-01 3.620615e-28
-1.047000e-01 -5.736626e-28
-1.038500e-01 -4.435969e-27
-1.030000e-01 -1.533919e-26
-1.021500e-01 -4.033308e-26
-1.013000e-01 -8.925265e-26
-1.004500e-01 -1.721435e-25
-9.960000e-02 -2.924452e-25
-9.875000e-02 -4.345512e-25
-9.790000e-02 -5.462012e-25
-9.705000e-02 -5.197496e-25
-9.620000e-02 -1.813246e-25
-9.535000e-02 6.982559e-25
-9.450001e-02 2.354923e-24
-9.365001e-02 4.933483e-24
-9.280001e-02 8.341960e-24
-9.195001e-02 1.208220e-23
-9.110001e-02 1.510849e-23
-9.025000e-02 1.578980e-23
-8.940001e-02 1.205831e-23
-8.855000e-02 1.803777e-24
-8.770001e-02 -1.648566e-23
-8.685000e-02 -4.292692e-23
-8.600000e-02 -7.547908e-23
-8.515000e-02 -1.094763e-22
-8.430000e-02 -1.377214e-22
-8.345000e-02 -1.513102e-22
-8.260000e-02 -1.411591e-22
-8.175001e-02 -9.996143e-23
-8.090001e-02 -2.407514e-23
-8.005001e-02 8.523936e-23
-7.920000e-02 2.216671e-22
-7.835001e-02 3.748306e-22
-7.750000e-02 5.319470e-22
-7.665001e-02 6.792053e-22
-7.580000e-02 8.017784e-22
-7.495001e-02 8.818299e-22
-7.410000e-02 8.949475e-22
-7.325000e-02 8.069343e-22
-7.240000e-02 5.742047e-22
-7.155000e-02 1.514131e-22
-7.070000e-02 -4.914629e-22
-6.985001e-02 -1.343860e-21
-6.900001e-02 -2.327689e-21
-6.815000e-02 -3.280679e-21
-6.730001e-02 -3.965177e-21
-6.645000e-02 -4.115974e-21
-6.560001e-02 -3.531774e-21
-6.475000e-02 -2.198803e-21
-6.390001e-02 -4.139828e-22
-6.305000e-02 1.144644e-21
-6.220000e-02 1.462438e-21
-6.135000e-02 -5.991962e-22
-6.050000e-02 -5.903243e-21
-5.965000e-02 -1.449142e-20
-5.880000e-02 -2.500920e-20
-5.795000e-02 -3.429047e-20
-5.710001e-02 -3.733355e-20
-5.625001e-02 -2.788500e-20
-5.540001e-02 2.466285e-22
-5.455001e-02 5.119910e-20
-5.370001e-02 1.246729e-19
-5.285000e-02 2.136840e-19
-5.200000e-02 3.031607e-19
-5.115000e-02 3.701375e-19
-5.030000e-02 3.861340e-19
-4.945000e-02 3.219340e-19
-4.860000e-02 1.544065e-19
-4.775000e-02 -1.256362e-19
-4.690000e-02 -5.061360e-19
-4.605000e-02 -9.489654e-19
-4.520001e-02 -1.389450e-18
-4.435001e-02 -1.741553e-18
-4.350001e-02 -1.909041e-18
-4.265001e-02 -1.801660e-18
-4.180001e-02 -1.354020e-18
-4.095000e-02 -5.438745e-19
-4.010000e-02 5.939669e-19
-3.925000e-02 1.961493e-18
-3.840000e-02 3.401397e-18
-3.755000e-02 4.711604e-18
-3.670000e-02 5.669068e-18
-3.585000e-02 6.059809e-18
-3.500000e-02 5.711126e-18
-3.415000e-02 4.521715e-18
-3.330000e-02 2.485964e-18
-3.245001e-02 -2.901753e-19
-3.160001e-02 -3.583444e-18
-3.075001e-02 -7.058761e-18
-2.990001e-02 -1.028728e-17
-2.905000e-02 -1.277905e-17
-2.820000e-02 -1.403272e-17
-2.735000e-02 -1.360431e-17
-2.650000e-02 -1.119375e-17
-2.565000e-02 -6.742738e-18
-2.480000e-02 -5.293369e-19
-2.395000e-02 6.763937e-18
-2.310000e-02 1.403783e-17
-2.225000e-02 1.985037e-17
-2.140000e-02 2.259924e-17
-2.055001e-02 2.081625e-17
-1.970001e-02 1.354923e-17
-1.885001e-02 7.732465e-19
-1.800001e-02 -1.625841e-17
-1.715000e-02 -3.483245e-17
-1.630000e-02 -5.086976e-17
-1.545000e-02 -5.937155e-17
-1.460000e-02 -5.523304e-17
-1.375000e-02 -3.435585e-17
-1.290000e-02 5.101994e-18
-1.205000e-02 6.158142e-17
-1.120000e-02 1.293706e-16
-1.035000e-02 1.985228e-16
-9.500004e-03 2.556420e-16
-8.650005e-03 2.855913e-16
-7.800005e-03 2.739861e-16
-6.950006e-03 2.101388e-16
-6.100006e-03 8.994838e-17
-5.250007e-03 -8.185698e-17
-4.400000e-03 -2.906923e-16
-3.550000e-03 -5.127200e-16
-2.700001e-03 -7.172343e-16
-1.850002e-03 -8.706386e-16
-1.000002e-03 -9.414815e-16
-1.500025e-04 -9.057449e-16
6.999969e-04 -7.514399e-16
1.549996e-03 -4.816068e-16
2.399996e-03 -1.150637e-16
3.249995e-03 3.153734e-16
4.099995e-03 7.669909e-16
4.949994e-03 1.192948e-15
5.799994e-03 1.548720e-15
6.650001e-03 1.798076e-15
7.499993e-03 1.917558e-15
8.350000e-03 1.898706e-15
9.199992e-03 1.747728e-15
1.005000e-02 1.482828e-15
1.089999e-02 1.129760e-15
1.175000e-02 7.165187e-16
1.259999e-02 2.680549e-16
1.345000e-02 -1.981312e-16
1.430000e-02 -6.749596e-16
1.515000e-02 -1.166955e-15
1.600000e-02 -1.689487e-15
1.684999e-02 -2.265963e-15
1.770000e-02 -2.922855e-15
1.854999e-02 -3.682377e-15
1.940000e-02 -4.552783e-15
2.024999e-02 -5.516568e-15
2.110000e-02 -6.517584e-15
2.194999e-02 -7.449108e-15
2.280000e-02 -8.145848e-15
2.364999e-02 -8.383818e-15
2.450000e-02 -7.892037e-15
2.535000e-02 -6.379264e-15
2.620000e-02 -3.576774e-15
2.705000e-02 7.049172e-16
2.790000e-02 6.511547e-15
2.875000e-02 1.368271e-14
2.959999e-02 2.180449e-14
3.045000e-02 3.019083e-14
3.129999e-02 3.790553e-14
3.215000e-02 4.383177e-14
3.299999e-02 4.678866e-14
3.385000e-02 4.568500e-14
3.469999e-02 3.969153e-14
3.555000e-02 2.840588e-14
3.639999e-02 1.198140e-14
3.725000e-02 -8.806829e-15
3.810000e-02 -3.257786e-14
3.895000e-02 -5.744922e-14
3.980000e-02 -8.122131e-14
4.065000e-02 -1.016181e-13
4.150000e-02 -1.165487e-13
4.234999e-02 -1.243483e-13
4.320000e-02 -1.239593e-13
4.404999e-02 -1.150215e-13
4.490000e-02 -9.785981e-14
4.574999e-02 -7.337384e-14
4.660000e-02 -4.285527e-14
4.744999e-02 -7.773617e-15
4.830000e-02 3.042428e-14
4.914999e-02 7.045691e-14
5.000000e-02 1.112622e-13
5.085000e-02 1.519522e-13
5.170000e-02 1.916794e-13
5.255000e-02 2.294450e-13
5.339999e-02 2.638973e-13
5.425000e-02 2.931675e-13
5.509999e-02 3.147882e-13
5.595000e-02 3.257252e-13
5.679999e-02 3.225306e-13
5.765000e-02 3.016072e-13
5.849999e-02 2.595556e-13
5.935000e-02 1.935691e-13
6.019999e-02 1.018341e-13
6.105000e-02 -1.609091e-14
6.190000e-02 -1.589443e-13
6.275000e-02 -3.234896e-13
6.360000e-02 -5.043136e-13
6.445000e-02 -6.937070e-13
6.530000e-02 -8.816503e-13
6.614999e-02 -1.055942e-12
6.700000e-02 -1.202516e-12
6.784999e-02 -1.305993e-12
6.870000e-02 -1.350507e-12
6.954999e-02 -1.320808e-12
7.040000e-02 -1.203597e-12
7.124999e-02 -9.890087e-13
7.210000e-02 -6.720907e-13
7.294999e-02 -2.541131e-13
7.380000e-02 2.564882e-13
7.465000e-02 8.436745e-13
7.550000e-02 1.483990e-12
7.635000e-02 2.147375e-12
7.720000e-02 2.798548e-12
7.805000e-02 3.398787e-12
7.889999e-02 3.907933e-12
7.975000e-02 4.286377e-12
8.059999e-02 4.496886e-12
8.145000e-02 4.506152e-12
8.229999e-02 4.286064e-12
8.315000e-02 3.814832e-12
8.399999e-02 3.078073e-12
8.485000e-02 2.070088e-12
8.570001e-02 7.954075e-13
8.655000e-02 -7.293468e-13
8.740000e-02 -2.473425e-12
8.825000e-02 -4.390022e-12
8.910000e-02 -6.414858e-12
8.995000e-02 -8.465734e-12
9.080000e-02 -1.044346e-11
9.164999e-02 -1.223449e-11
9.250000e-02 -1.371522e-11
9.334999e-02 -1.475801e-11
9.420000e-02 -1.523820e-11
9.504999e-02 -1.504179e-11
9.590000e-02 -1.407297e-11
9.674999e-02 -1.226094e-11
9.760000e-02 -9.565428e-12
9.845001e-02 -5.980915e-12
9.930000e-02 -1.539312e-12
1.001500e-01 3.688418e-12
1.010000e-01 9.591444e-12
1.018500e-01 1.601865e-11
1.027000e-01 2.277842e-11
1.035500e-01 2.963883e-11
1.044000e-01 3.632846e-11
1.052500e-01 4.253878e-11
1.061000e-01 4.792890e-11
1.069500e-01 5.213360e-11
1.078000e-01 5.477527e-11
1.086500e-01 5.548014e-11
1.095000e-01 5.389843e-11
1.103500e-01 4.972719e-11
1.112000e-01 4.273501e-11
1.120500e-01 3.278592e-11
1.129000e-01 1.986129e-11
1.137500e-01 4.077206e-12
1.146000e-01 -1.430356e-11
1.154500e-01 -3.486637e-11
1.163000e-01 -5.704629e-11
1.171500e-01 -8.013643e-11
1.180000e-01 -1.033025e-10
1.188500e-01 -1.256029e-10
1.197000e-01 -1.460136e-10
1.205500e-01 -1.634576e-10
1.214000e-01 -1.768389e-10
1.222500e-01 -1.850806e-10
1.231000e-01 -1.871677e-10
1.239500e-01 -1.821929e-10
1.248000e-01 -1.694071e-10
1.256500e-01 -1.482705e-10
1.265000e-01 -1.185044e-10
1.273500e-01 -8.014019e-11
1.282000e-01 -3.356361e-11
1.290500e-01 2.044750e-11
1.299000e-01 8.069377e-11
1.307500e-01 1.455333e-10
1.316000e-01 2.128682e-10
1.324500e-01 2.801356e-10
1.333000e-01 3.443026e-10
1.341500e-01 4.018600e-10
1.350000e-01 4.488114e-10
1.358500e-01 4.806589e-10
1.367000e-01 4.923780e-10
1.375500e-01 4.783877e-10
1.384000e-01 4.325090e-10
1.392500e-01 3.479172e-10
1.401000e-01 2.170836e-10
1.409500e-01 3.170514e-11
1.418000e-01 -2.173814e-10
1.426500e-01 -5.403070e-10
1.435000e-01 -9.483079e-10
1.443500e-01 -1.453902e-09
1.452000e-01 -2.071113e-09
1.460500e-01 -2.815760e-09
1.469000e-01 -3.705800e-09
1.477500e-01 -4.761762e-09
1.486000e-01 -6.007252e-09
1.494500e-01 -7.469548e-09
1.503000e-01 -9.180282e-09
1.511500e-01 -1.117623e-08
1.520000e-01 -1.350021e-08
1.528500e-01 -1.620203e-08
1.537000e-01 -1.933970e-08
1.545500e-01 -2.298063e-08
1.554000e-01 -2.720307e-08
1.562500e-01 -3.209772e-08
1.571000e-01 -3.776945e-08
1.579500e-01 -4.433938e-08
1.588000e-01 -5.194697e-08
1.596500e-01 -6.075248e-08
1.605000e-01 -7.093969e-08
1.613500e-01 -8.271870e-08
1.622000e-01 -9.632920e-08
1.630500e-01 -1.120439e-07
1.639000e-01 -1.301723e-07
1.647500e-01 -1.510648e-07
1.656000e-01 -1.751173e-07
1.664500e-01 -2.027760e-07
1.673000e-01 -2.345423e-07
1.681500e-01 -2.709795e-07
1.690000e-01 -3.127178e-07
1.698500e-01 -3.604622e-07
1.707000e-01 -4.149987e-07
1.715500e-01 -4.772017e-07
1.724000e-01 -5.480433e-07
1.732500e-01 -6.285999e-07
1.741000e-01 -7.200619e-07
1.749500e-01 -8.237420e-07
1.758000e-01 -9.410847e-07
1.766500e-01 -1.073674e-06
1.775000e-01 -1.223244e-06
1.783500e-01 -1.391685e-06
1.792000e-01 -1.581057e-06
1.800500e-01 -1.793590e-06
1.809000e-01 -2.031699e-06
1.817500e-01 -2.297981e-06
1.826000e-01 -2.595229e-06
1.834500e-01 -2.926427e-06
1.843000e-01 -3.294754e-06
1.851500e-01 -3.703584e-06
1.860000e-01 -4.156480e-06
1.868500e-01 -4.657186e-06
1.877000e-01 -5.209617e-06
1.885500e-01 -5.817846e-06
1.894000e-01 -6.486083e-06
1.902500e-01 -7.218648e-06
1.911000e-01 -8.019952e-06
1.919500e-01 -8.894452e-06
1.928000e-01 -9.846621e-06
1.936500e-01 -1.088089e-05
1.945000e-01 -1.200162e-05
1.953500e-01 -1.321299e-05
1.962000e-01 -1.451900e-05
1.970500e-01 -1.592336e-05
1.979000e-01 -1.742941e-05
1.987500e-01 -1.904003e-05
1.996000e-01 -2.075756e-05
2.004500e-01 -2.258374e-05
2.013000e-01 -2.451951e-05
2.021500e-01 -2.656501e-05
2.030000e-01 -2.871940e-05
2.038500e-01 -3.098077e-05
2.047000e-01 -3.334604e-05
2.055500e-01 -3.581083e-05
2.064000e-01 -3.836938e-05
2.072500e-01 -4.101437e-05
2.081000e-01 -4.373689e-05
2.089500e-01 -4.652634e-05
2.098000e-01 -4.937030e-05
2.106500e-01 -5.225445e-05
2.115000e-01 -5.516261e-05
2.123500e-01 -5.807659e-05
2.132000e-01 -6.097615e-05
2.140500e-01 -6.383914e-05
2.149000e-01 -6.664133e-05
2.157500e-01 -6.935659e-05
2.166000e-01 -7.195689e-05
2.174500e-01 -7.441244e-05
2.183000e-01 -7.669180e-05
2.191500e-01 -7.876192e-05
2.200000e-01 -8.058851e-05
2.208500e-01 -8.213625e-05
2.217000e-01 -8.336885e-05
2.225500e-01 -8.424952e-05
2.234000e-01 -8.474127e-05
2.242500e-01 -8.480702e-05
2.251000e-01 -8.441049e-05
2.259500e-01 -8.351592e-05
2.268000e-01 -8.208909e-05
2.276500e-01 -8.009736e-05
2.285000e-01 -7.751038e-05
2.293500e-01 -7.430022e-05
2.302000e-01 -7.044235e-05
2.310500e-01 -6.591556e-05
2.319000e-01 -6.070282e-05
2.327500e-01 -5.479153e-05
2.336000e-01 -4.817380e-05
2.344500e-01 -4.084724e-05
2.353000e-01 -3.281498e-05
2.361500e-01 -2.408619e-05
2.370000e-01 -1.467625e-05
2.378500e-01 -4.606922e-06
2.387000e-01 6.093120e-06
2.395500e-01 1.738873e-05
2.404000e-01 2.923769e-05
2.412500e-01 4.159129e-05
2.421000e-01 5.439390e-05
2.429500e-01 6.758373e-05
2.438000e-01 8.109253e-05
2.446500e-01 9.484612e-05
2.455000e-01 1.087651e-04
2.463500e-01 1.227651e-04
2.472000e-01 1.367573e-04
2.480500e-01 1.506492e-04
2.489000e-01 1.643449e-04
2.497500e-01 1.777471e-04
2.506000e-01 1.907563e-04
2.514500e-01 2.032729e-04
2.523000e-01 2.151976e-04
2.531500e-01 2.264322e-04
2.540000e-01 2.368809e-04
2.548500e-01 2.464513e-04
2.557000e-01 2.550548e-04
2.565500e-01 2.626085e-04
2.574000e-01 2.690348e-04
2.582500e-01 2.742634e-04
2.591000e-01 2.782316e-04
2.599500e-01 2.808852e-04
2.608000e-01 2.821788e-04
2.616500e-01 2.820773e-04
2.625000e-01 2.805551e-04
2.633500e-01 2.775977e-04
2.642000e-01 2.732015e-04
2.650500e-01 2.673736e-04
2.659000e-01 2.601328e-04
2.667500e-01 2.515087e-04
2.676000e-01 2.415419e-04
2.684500e-01 2.302839e-04
2.693000e-01 2.177963e-04
2.701500e-01 2.041508e-04
2.710000e-01 1.894278e-04
2.718500e-01 1.737167e-04
2.727000e-01 1.571145e-04
2.735500e-01 1.397247e-04
2.744000e-01 1.216572e-04
2.752500e-01 1.030266e-04
2.761000e-01 8.395121e-05
2.769500e-01 6.455248e-05
2.778000e-01 4.495320e-05
2.786500e-01 2.527679e-05
2.795000e-01 5.646343e-06
2.803500e-01 -1.381720e-05
2.812000e-01 -3.299513e-05
2.820500e-01 -5.177319e-05
2.829000e-01 -7.004104e-05
2.837500e-01 -8.769490e-05
2.846000e-01 -1.046364e-04
2.854500e-01 -1.207755e-04
2.863000e-01 -1.360295e-04
2.871500e-01 -1.503244e-04
2.880000e-01 -1.635948e-04
2.888500e-01 -1.757851e-04
2.897000e-01 -1.868493e-04
2.905500e-01 -1.967506e-04
2.914000e-01 -2.054625e-04
2.922500e-01 -2.129683e-04
2.931000e-01 -2.192605e-04
2.939500e-01 -2.243411e-04
2.948000e-01 -2.282218e-04
2.956500e-01 -2.309221e-04
2.965000e-01 -2.324700e-04
2.973500e-01 -2.329015e-04
2.982000e-01 -2.322588e-04
2.990500e-01 -2.305914e-04
2.999000e-01 -2.279540e-04
3.007500e-01 -2.244060e-04
3.016000e-01 -2.200115e-04
3.024500e-01 -2.148381e-04
3.033000e-01 -2.089555e-04
3.041500e-01 -2.024359e-04
3.050000e-01 -1.953526e-04
3.058500e-01 -1.877794e-04
3.067000e-01 -1.797900e-04
3.075500e-01 -1.714572e-04
3.084000e-01 -1.628527e-04
3.092500e-01 -1.540460e-04
3.101000e-01 -1.451042e-04
3.109500e-01 -1.360917e-04
3.118000e-01 -1.270695e-04
3.126500e-01 -1.180950e-04
3.135000e-01 -1.092215e-04
3.143500e-01 -1.004985e-04
3.152000e-01 -9.197089e-05
3.160500e-01 -8.367930e-05
3.169000e-01 -7.565979e-05
3.177500e-01 -6.794393e-05
3.186000e-01 -6.055878e-05
3.194500e-01 -5.352700e-05
3.203000e-01 -4.686692e-05
3.211500e-01 -4.059260e-05
3.220000e-01 -3.471422e-05
3.228500e-01 -2.923796e-05
3.237000e-01 -2.416644e-05
3.245500e-01 -1.949887e-05
3.254000e-01 -1.523127e-05
3.262500e-01 -1.135665e-05
3.271000e-01 -7.865444e-06
3.279500e-01 -4.745575e-06
3.288000e-01 -1.982819e-06
3.296500e-01 4.389302e-07
3.305000e-01 2.537573e-06
3.313500e-01 4.332388e-06
3.322000e-01 5.843836e-06
3.330500e-01 7.093465e-06
3.339000e-01 8.103535e-06
3.347500e-01 8.896824e-06
3.356000e-01 9.496547e-06
3.364500e-01 9.926079e-06
3.373000e-01 1.020877e-05
3.381500e-01 1.036788e-05
3.390000e-01 1.042636e-05
3.398500e-01 1.040662e-05
3.407000e-01 1.033061e-05
3.415500e-01 1.021961e-05
3.424000e-01 1.009392e-05
3.432500e-01 9.973133e-06
3.441000e-01 9.875773e-06
3.449500e-01 9.819239e-06
3.458000e-01 9.819700e-06
3.466500e-01 9.892100e-06
3.475000e-01 1.005007e-05
3.483500e-01 1.030577e-05
3.492000e-01 1.066984e-05
3.500500e-01 1.115143e-05
3.509000e-01 1.175807e-05
3.517500e-01 1.249565e-05
3.526000e-01 1.336843e-05
3.534500e-01 1.437896e-05
3.543000e-01 1.552818e-05
3.551500e-01 1.681519e-05
3.560000e-01 1.823748e-05
3.568500e-01 1.979088e-05
3.577000e-01 2.146952e-05
3.585500e-01 2.326604e-05
3.594000e-01 2.517154e-05
3.602500e-01 2.717564e-05
3.611000e-01 2.926657e-05
3.619500e-01 3.143137e-05
3.628000e-01 3.365587e-05
3.636500e-01 3.592494e-05
3.645000e-01 3.822258e-05
3.653500e-01 4.053206e-05
3.662000e-01 4.283615e-05
3.670500e-01 4.511714e-05
3.679000e-01 4.735721e-05
3.687500e-01 4.953845e-05
3.696000e-01 5.164308e-05
3.704500e-01 5.365364e-05
3.713000e-01 5.555316e-05
3.721500e-01 5.732531e-05
3.730000e-01 5.895456e-05
3.738500e-01 6.042635e-05
3.747000e-01 6.172722e-05
3.755500e-01 6.284499e-05
3.764000e-01 6.376881e-05
3.772500e-01 6.448934e-05
3.781000e-01 6.499888e-05
3.789500e-01 6.529124e-05
3.798000e-01 6.536204e-05
3.806500e-01 6.520865e-05
3.815000e-01 6.483011e-05
3.823500e-01 6.422732e-05
3.832000e-01 6.340285e-05
3.840500e-01 6.236099e-05
3.849000e-01 6.110768e-05
3.857500e-01 5.965042e-05
3.866000e-01 5.799821e-05
3.874500e-01 5.616141e-05
3.883000e-01 5.415167e-05
3.891500e-01 5.198179e-05
