-1.200000e-01 0.000000e+00
-1.191500e-01 0.000000e+00
-1.183000e-01 0.000000e+00
-1.174500e-01 0.000000e+00
-1.166000e-01 0.000000e+00
-1.157500e-01 0.000000e+00
-1.149000e-01 0.000000e+00
-1.140500e-01 0.000000e+00
-1.132000e-01 0.000000e+00
-1.123500e-01 0.000000e+00
-1.115000e-01 0.000000e+00
-1.106500e-01 -5.849039e-38
-1.098000e-01 -1.064014e-36
-1.089500e-01 -9.829781e-36
-1.081000e-01 -6.121910e-35
-1.072500e-01 -2.876472e-34
-1.064000e-01 -1.080586e-33
-1.055500e-01 -3.351372e-33
-1.047000e-01 -8.714760e-33
-1.038500e-01 -1.899675e-32
-1.030000e-01 -3.388164e-32
-1.021500e-01 -4.525271e-32
-1.013000e-01 -2.791315e-32
-1.004500e-01 6.976490e-32
-9.960000e-02 3.246581e-31
-9.875000e-02 8.086452e-31
-9.790000e-02 1.508873e-30
-9.705000e-02 2.193267e-30
-9.620000e-02 2.258572e-30
-9.535000e-02 6.674357e-31
-9.450001e-02 -3.847235e-30
-9.365001e-02 -1.211295e-29
-9.280001e-02 -2.329432e-29
-9.195001e-02 -3.332481e-29
-9.110001e-02 -3.367926e-29
-9.025000e-02 -1.168664e-29
-8.940001e-02 4.616602e-29
-8.855000e-02 1.468837e-28
-8.770001e-02 2.798832e-28
-8.685000e-02 4.048400e-28
-8.600000e-02 4.439189e-28
-8.515000e-02 2.859525e-28
-8.430000e-02 -1.899646e-28
-8.345000e-02 -1.067604e-27
-8.260000e-02 -2.327129e-27
-8.175001e-02 -3.772923e-27
-8.090001e-02 -4.979542e-27
-8.005001e-02 -5.285382e-27
-7.920000e-02 -3.861291e-27
-7.835001e-02 1.299280e-28
-7.750000e-02 7.286076e-27
-7.665001e-02 1.765377e-26
-7.580000e-02 3.039314e-26
-7.495001e-02 4.347096e-26
-7.410000e-02 5.344179e-26
-7.325000e-02 5.539378e-26
-7.240000e-02 4.316992e-26
-7.155000e-02 1.003184e-26
-7.070000e-02 -5.001221e-26
-6.985001e-02 -1.399911e-25
-6.900001e-02 -2.567735e-25
-6.815000e-02 -3.871308e-25
-6.730001e-02 -5.038786e-25
-6.645000e-02 -5.636385e-25
-6.560001e-02 -5.084356e-25
-6.475000e-02 -2.735740e-25
-6.390001e-02 1.963791e-25
-6.305000e-02 9.234890e-25
-6.220000e-02 1.867258e-24
-6.135000e-02 2.897199e-24
-6.050000e-02 3.777608e-24
-5.965000e-02 4.176787e-24
-5.880000e-02 3.711391e-24
-5.795000e-02 2.030541e-24
-5.710001e-02 -1.066483e-24
-5.625001e-02 -5.498707e-24
-5.540001e-02 -1.079133e-23
-5.455001e-02 -1.602462e-23
-5.370001e-02 -1.988411e-23
-5.285000e-02 -2.083844e-23
-5.200000e-02 -1.744313e-23
-5.115000e-02 -8.732985e-24
-5.030000e-02 5.371815e-24
-4.945000e-02 2.374729e-23
-4.860000e-02 4.394119e-23
-4.775000e-02 6.232585e-23
-4.690000e-02 7.455937e-23
-4.605000e-02 7.631539e-23
-4.520001e-02 6.416730e-23
-4.435001e-02 3.645731e-23
-4.350001e-02 -6.037121e-24
-4.265001e-02 -5.979901e-23
-4.180001e-02 -1.187166e-22
-4.095000e-02 -1.746665e-22
-4.010000e-02 -2.184315e-22
-3.925000e-02 -2.407921e-22
-3.840000e-02 -2.336181e-22
-3.755000e-02 -1.908452e-22
-3.670000e-02 -1.092916e-22
-3.585000e-02 1.064476e-23
-3.500000e-02 1.643438e-22
-3.415000e-02 3.423543e-22
-3.330000e-02 5.299022e-22
-3.245001e-02 7.067301e-22
-3.160001e-02 8.475682e-22
-3.075001e-02 9.234932e-22
-2.990001e-02 9.042737e-22
-2.905000e-02 7.614826e-22
-2.820000e-02 4.719136e-22
-2.735000e-02 2.070965e-23
-2.650000e-02 -5.961509e-22
-2.565000e-02 -1.369776e-21
-2.480000e-02 -2.275614e-21
-2.395000e-02 -3.268274e-21
-2.310000e-02 -4.272076e-21
-2.225000e-02 -5.166651e-21
-2.140000e-02 -5.769496e-21
-2.055001e-02 -5.821352e-21
-1.970001e-02 -4.984537e-21
-1.885001e-02 -2.867517e-21
-1.800001e-02 9.111701e-22
-1.715000e-02 6.611813e-21
-1.630000e-02 1.421894e-20
-1.545000e-02 2.326397e-20
-1.460000e-02 3.266540e-20
-1.375000e-02 4.064391e-20
-1.290000e-02 4.477754e-20
-1.205000e-02 4.225352e-20
-1.120000e-02 3.034483e-20
-1.035000e-02 7.089803e-21
-9.500004e-03 -2.791087e-20
-8.650005e-03 -7.273170e-20
-7.800005e-03 -1.225965e-19
-6.950006e-03 -1.698065e-19
-6.100006e-03 -2.043048e-19
-5.250007e-03 -2.149610e-19
-4.400000e-03 -1.915190e-19
-3.550000e-03 -1.269672e-19
-2.700001e-03 -1.992531e-20
-1.850002e-03 1.234773e-19
-1.000002e-03 2.887800e-19
-1.500025e-04 4.538685e-19
6.999969e-04 5.913597e-19
1.549996e-03 6.725643e-19
2.399996e-03 6.725087e-19
3.249995e-03 5.751632e-19
4.099995e-03 3.778000e-19
4.949994e-03 9.341574e-20
5.799994e-03 -2.496052e-19
6.650001e-03 -6.109113e-19
7.499993e-03 -9.443667e-19
8.350000e-03 -1.205979e-18
9.199992e-03 -1.362003e-18
1.005000e-02 -1.395356e-18
1.089999e-02 -1.308645e-18
1.175000e-02 -1.122628e-18
1.259999e-02 -8.699118e-19
1.345000e-02 -5.848347e-19
1.430000e-02 -2.915997e-19
1.515000e-02 6.417996e-21
1.600000e-02 3.329985e-19
1.684999e-02 7.382413e-19
1.770000e-02 1.288906e-18
1.854999e-02 2.049991e-18
1.940000e-02 3.059657e-18
2.024999e-02 4.301597e-18
2.110000e-02 5.680490e-18
2.194999e-02 7.006903e-18
2.280000e-02 7.997656e-18
2.364999e-02 8.296126e-18
2.450000e-02 7.514407e-18
2.535000e-02 5.295681e-18
2.620000e-02 1.391420e-18
2.705000e-02 -4.255963e-18
2.790000e-02 -1.143748e-17
2.875000e-02 -1.962364e-17
2.959999e-02 -2.794709e-17
3.045000e-02 -3.523505e-17
3.129999e-02 -4.010041e-17
3.215000e-02 -4.109319e-17
3.299999e-02 -3.690547e-17
3.385000e-02 -2.661173e-17
3.469999e-02 -9.915688e-18
3.555000e-02 1.263412e-17
3.639999e-02 3.950378e-17
3.725000e-02 6.815132e-17
3.810000e-02 9.515653e-17
3.895000e-02 1.165209e-16
3.980000e-02 1.281301e-16
4.065000e-02 1.263417e-16
4.150000e-02 1.086298e-16
4.234999e-02 7.418966e-17
4.320000e-02 2.439494e-17
4.404999e-02 -3.700253e-17
4.490000e-02 -1.040147e-16
4.574999e-02 -1.689419e-16
4.660000e-02 -2.232622e-16
4.744999e-02 -2.587942e-16
4.830000e-02 -2.689822e-16
4.914999e-02 -2.500980e-16
5.000000e-02 -2.021391e-16
5.085000e-02 -1.292191e-16
5.170000e-02 -3.931128e-17
5.255000e-02 5.669825e-17
5.339999e-02 1.465688e-16
5.425000e-02 2.186702e-16
5.509999e-02 2.640472e-16
5.595000e-02 2.782118e-16
5.679999e-02 2.622965e-16
5.765000e-02 2.232658e-16
5.849999e-02 1.730252e-16
5.935000e-02 1.264468e-16
6.019999e-02 9.853785e-17
6.105000e-02 1.011692e-16
6.190000e-02 1.399159e-16
6.275000e-02 2.116217e-16
6.360000e-02 3.032497e-16
6.445000e-02 3.924314e-16
6.530000e-02 4.498845e-16
6.614999e-02 4.435683e-16
6.700000e-02 3.441334e-16
6.784999e-02 1.309410e-16
6.870000e-02 -2.022620e-16
6.954999e-02 -6.430004e-16
7.040000e-02 -1.157963e-15
7.124999e-02 -1.693811e-15
7.210000e-02 -2.181217e-15
7.294999e-02 -2.541991e-15
7.380000e-02 -2.698695e-15
7.465000e-02 -2.585640e-15
7.550000e-02 -2.159873e-15
7.635000e-02 -1.410529e-15
7.720000e-02 -3.649813e-16
7.805000e-02 9.094956e-16
7.889999e-02 2.309369e-15
7.975000e-02 3.703867e-15
8.059999e-02 4.948693e-15
8.145000e-02 5.902923e-15
8.229999e-02 6.446902e-15
8.315000e-02 6.498542e-15
8.399999e-02 6.025401e-15
8.485000e-02 5.050219e-15
8.570001e-02 3.648558e-15
8.655000e-02 1.938221e-15
8.740000e-02 6.164699e-17
8.825000e-02 -1.836217e-15
8.910000e-02 -3.630900e-15
8.995000e-02 -5.237984e-15
9.080000e-02 -6.625131e-15
9.164999e-02 -7.813280e-15
9.250000e-02 -8.865434e-15
9.334999e-02 -9.863640e-15
9.420000e-02 -1.087724e-14
9.504999e-02 -1.192765e-14
9.590000e-02 -1.295651e-14
9.674999e-02 -1.380460e-14
9.760000e-02 -1.420793e-14
9.845001e-02 -1.381549e-14
9.930000e-02 -1.222969e-14
1.001500e-01 -9.066630e-15
1.010000e-01 -4.029325e-15
1.018500e-01 3.016275e-15
1.027000e-01 1.197458e-14
1.035500e-01 2.247530e-14
1.044000e-01 3.386023e-14
1.052500e-01 4.520852e-14
1.061000e-01 5.540145e-14
1.069500e-01 6.322214e-14
1.078000e-01 6.747994e-14
1.086500e-01 6.714472e-14
1.095000e-01 6.147406e-14
1.103500e-01 5.011709e-14
1.112000e-01 3.318011e-14
1.120500e-01 1.124592e-14
1.129000e-01 -1.465658e-14
1.137500e-01 -4.312757e-14
1.146000e-01 -7.250647e-14
1.154500e-01 -1.010015e-13
1.163000e-01 -1.268220e-13
1.171500e-01 -1.482963e-13
1.180000e-01 -1.639631e-13
1.188500e-01 -1.726263e-13
1.197000e-01 -1.733736e-13
1.205500e-01 -1.655642e-13
1.214000e-01 -1.487950e-13
1.222500e-01 -1.228631e-13
1.231000e-01 -8.773996e-14
1.239500e-01 -4.357175e-14
1.248000e-01 9.281082e-15
1.256500e-01 7.016336e-14
1.265000e-01 1.380073e-13
1.273500e-01 2.111905e-13
1.282000e-01 2.873928e-13
1.290500e-01 3.634777e-13
1.299000e-01 4.354327e-13
1.307500e-01 4.983922e-13
1.316000e-01 5.467725e-13
1.324500e-01 5.745264e-13
1.333000e-01 5.755195e-13
1.341500e-01 5.440105e-13
1.350000e-01 4.752004e-13
1.358500e-01 3.658051e-13
1.367000e-01 2.145963e-13
1.375500e-01 2.285022e-14
1.384000e-01 -2.053453e-13
1.392500e-01 -4.629670e-13
1.401000e-01 -7.401354e-13
1.409500e-01 -1.024394e-12
1.418000e-01 -1.301171e-12
1.426500e-01 -1.554372e-12
1.435000e-01 -1.767065e-12
1.443500e-01 -1.922199e-12
1.452000e-01 -2.003319e-12
1.460500e-01 -1.995246e-12
1.469000e-01 -1.884741e-12
1.477500e-01 -1.661144e-12
1.486000e-01 -1.317055e-12
1.494500e-01 -8.490662e-13
1.503000e-01 -2.585766e-13
1.511500e-01 4.473103e-13
1.520000e-01 1.254862e-12
1.528500e-01 2.142856e-12
1.537000e-01 3.081914e-12
1.545500e-01 4.034200e-12
1.554000e-01 4.953651e-12
1.562500e-01 5.786885e-12
1.571000e-01 6.474888e-12
1.579500e-01 6.955500e-12
1.588000e-01 7.166638e-12
1.596500e-01 7.050090e-12
1.605000e-01 6.555622e-12
1.613500e-01 5.645126e-12
1.622000e-01 4.296464e-12
1.630500e-01 2.506717e-12
1.639000e-01 2.945853e-13
1.647500e-01 -2.298217e-12
1.656000e-01 -5.206634e-12
1.664500e-01 -8.342997e-12
1.673000e-01 -1.159868e-11
1.681500e-01 -1.484656e-11
1.690000e-01 -1.794417e-11
1.698500e-01 -2.073733e-11
1.707000e-01 -2.306427e-11
1.715500e-01 -2.476025e-11
1.724000e-01 -2.566273e-11
1.732500e-01 -2.561706e-11
1.741000e-01 -2.448290e-11
1.749500e-01 -2.214134e-11
1.758000e-01 -1.850248e-11
1.766500e-01 -1.351351e-11
1.775000e-01 -7.166639e-12
1.783500e-01 4.933509e-13
1.792000e-01 9.362661e-12
1.800500e-01 1.927369e-11
1.809000e-01 2.999240e-11
1.817500e-01 4.121838e-11
1.826000e-01 5.258804e-11
1.834500e-01 6.368094e-11
1.843000e-01 7.402953e-11
1.851500e-01 8.313199e-11
1.860000e-01 9.046797e-11
1.868500e-01 9.551675e-11
1.877000e-01 9.777761e-11
1.885500e-01 9.679170e-11
1.894000e-01 9.216510e-11
1.902500e-01 8.359213e-11
1.911000e-01 7.087889e-11
1.919500e-01 5.396647e-11
1.928000e-01 3.295276e-11
1.936500e-01 8.113737e-12
1.945000e-01 -2.007767e-11
1.953500e-01 -5.093442e-11
1.962000e-01 -8.354047e-11
1.970500e-01 -1.167381e-10
1.979000e-01 -1.491171e-10
1.987500e-01 -1.790064e-10
1.996000e-01 -2.044670e-10
2.004500e-01 -2.232854e-10
2.013000e-01 -2.329666e-10
2.021500e-01 -2.307269e-10
2.030000e-01 -2.134836e-10
2.038500e-01 -1.778404e-10
2.047000e-01 -1.200644e-10
2.055500e-01 -3.605868e-11
2.064000e-01 7.867962e-11
2.072500e-01 2.291125e-10
2.081000e-01 4.207328e-10
2.089500e-01 6.596533e-10
2.098000e-01 9.527239e-10
2.106500e-01 1.307672e-09
2.115000e-01 1.733282e-09
2.123500e-01 2.239597e-09
2.132000e-01 2.838167e-09
2.140500e-01 3.542328e-09
2.149000e-01 4.367530e-09
2.157500e-01 5.331731e-09
2.166000e-01 6.455834e-09
2.174500e-01 7.764185e-09
2.183000e-01 9.285129e-09
2.191500e-01 1.105164e-08
2.200000e-01 1.310203e-08
2.208500e-01 1.548073e-08
2.217000e-01 1.823924e-08
2.225500e-01 2.143711e-08
2.234000e-01 2.514309e-08
2.242500e-01 2.943638e-08
2.251000e-01 3.440799e-08
2.259500e-01 4.016232e-08
2.268000e-01 4.681888e-08
2.276500e-01 5.451414e-08
2.285000e-01 6.340365e-08
2.293500e-01 7.366432e-08
2.302000e-01 8.549680e-08
2.310500e-01 9.912838e-08
2.319000e-01 1.148155e-07
2.327500e-01 1.328475e-07
2.336000e-01 1.535494e-07
2.344500e-01 1.772862e-07
2.353000e-01 2.044666e-07
2.361500e-01 2.355470e-07
2.370000e-01 2.710365e-07
2.378500e-01 3.115009e-07
2.387000e-01 3.575683e-07
2.395500e-01 4.099337e-07
2.404000e-01 4.693646e-07
2.412500e-01 5.367064e-07
2.421000e-01 6.128876e-07
2.429500e-01 6.989247e-07
2.438000e-01 7.959278e-07
2.446500e-01 9.051055e-07
2.455000e-01 1.027768e-06
2.463500e-01 1.165335e-06
2.472000e-01 1.319332e-06
2.480500e-01 1.491403e-06
2.489000e-01 1.683304e-06
2.497500e-01 1.896905e-06
2.506000e-01 2.134191e-06
2.514500e-01 2.397259e-06
2.523000e-01 2.688312e-06
2.531500e-01 3.009655e-06
2.540000e-01 3.363687e-06
2.548500e-01 3.752885e-06
2.557000e-01 4.179797e-06
2.565500e-01 4.647018e-06
2.574000e-01 5.157180e-06
2.582500e-01 5.712915e-06
2.591000e-01 6.316842e-06
2.599500e-01 6.971535e-06
2.608000e-01 7.679477e-06
2.616500e-01 8.443036e-06
2.625000e-01 9.264424e-06
2.633500e-01 1.014563e-05
2.642000e-01 1.108842e-05
2.650500e-01 1.209421e-05
2.659000e-01 1.316410e-05
2.667500e-01 1.429873e-05
2.676000e-01 1.549831e-05
2.684500e-01 1.676245e-05
2.693000e-01 1.809022e-05
2.701500e-01 1.947998e-05
2.710000e-01 2.092936e-05
2.718500e-01 2.243524e-05
2.727000e-01 2.399360e-05
2.735500e-01 2.559953e-05
2.744000e-01 2.724719e-05
2.752500e-01 2.892969e-05
2.761000e-01 3.063913e-05
2.769500e-01 3.236648e-05
2.778000e-01 3.410165e-05
2.786500e-01 3.583340e-05
2.795000e-01 3.754941e-05
2.803500e-01 3.923622e-05
2.812000e-01 4.087925e-05
2.820500e-01 4.246297e-05
2.829000e-01 4.397076e-05
2.837500e-01 4.538512e-05
2.846000e-01 4.668773e-05
2.854500e-01 4.785951e-05
2.863000e-01 4.888077e-05
2.871500e-01 4.973137e-05
2.880000e-01 5.039085e-05
2.888500e-01 5.083860e-05
2.897000e-01 5.105410e-05
2.905500e-01 5.101699e-05
2.914000e-01 5.070751e-05
2.922500e-01 5.010649e-05
2.931000e-01 4.919574e-05
2.939500e-01 4.795827e-05
2.948000e-01 4.637851e-05
2.956500e-01 4.444258e-05
2.965000e-01 4.213853e-05
2.973500e-01 3.945659e-05
2.982000e-01 3.638942e-05
2.990500e-01 3.293233e-05
2.999000e-01 2.908350e-05
3.007500e-01 2.484420e-05
3.016000e-01 2.021891e-05
3.024500e-01 1.521552e-05
3.033000e-01 9.845406e-06
3.041500e-01 4.123554e-06
3.050000e-01 -1.931382e-06
3.058500e-01 -8.297076e-06
3.067000e-01 -1.494754e-05
3.075500e-01 -2.185318e-05
3.084000e-01 -2.898092e-05
3.092500e-01 -3.629432e-05
3.101000e-01 -4.375376e-05
3.109500e-01 -5.131672e-05
3.118000e-01 -5.893801e-05
3.126500e-01 -6.657006e-05
3.135000e-01 -7.416337e-05
3.143500e-01 -8.166672e-05
3.152000e-01 -8.902769e-05
3.160500e-01 -9.619312e-05
3.169000e-01 -1.031097e-04
3.177500e-01 -1.097240e-04
3.186000e-01 -1.159838e-04
3.194500e-01 -1.218376e-04
3.203000e-01 -1.272359e-04
3.211500e-01 -1.321312e-04
3.220000e-01 -1.364792e-04
3.228500e-01 -1.402382e-04
3.237000e-01 -1.433707e-04
3.245500e-01 -1.458432e-04
3.254000e-01 -1.476263e-04
3.262500e-01 -1.486962e-04
3.271000e-01 -1.490338e-04
3.279500e-01 -1.486254e-04
3.288000e-01 -1.474632e-04
3.296500e-01 -1.455452e-04
3.305000e-01 -1.428752e-04
3.313500e-01 -1.394630e-04
3.322000e-01 -1.353246e-04
3.330500e-01 -1.304812e-04
3.339000e-01 -1.249604e-04
3.347500e-01 -1.187947e-04
3.356000e-01 -1.120222e-04
3.364500e-01 -1.046855e-04
3.373000e-01 -9.683205e-05
3.381500e-01 -8.851307e-05
3.390000e-01 -7.978344e-05
3.398500e-01 -7.070110e-05
3.407000e-01 -6.132647e-05
3.415500e-01 -5.172206e-05
3.424000e-01 -4.195163e-05
3.432500e-01 -3.207970e-05
3.441000e-01 -2.217097e-05
3.449500e-01 -1.228962e-05
3.458000e-01 -2.498878e-06
3.466500e-01 7.139607e-06
3.475000e-01 1.656635e-05
3.483500e-01 2.572454e-05
3.492000e-01 3.456056e-05
3.500500e-01 4.302436e-05
3.509000e-01 5.106993e-05
3.517500e-01 5.865554e-05
3.526000e-01 6.574413e-05
3.534500e-01 7.230348e-05
3.543000e-01 7.830642e-05
3.551500e-01 8.373093e-05
3.560000e-01 8.856026e-05
3.568500e-01 9.278291e-05
3.577000e-01 9.639258e-05
3.585500e-01 9.938812e-05
3.594000e-01 1.017733e-04
3.602500e-01 1.035565e-04
3.611000e-01 1.047509e-04
3.619500e-01 1.053733e-04
3.628000e-01 1.054449e-04
3.636500e-01 1.049901e-04
3.645000e-01 1.040367e-04
3.653500e-01 1.026152e-04
3.662000e-01 1.007584e-04
3.670500e-01 9.850097e-05
3.679000e-01 9.587911e-05
3.687500e-01 9.292997e-05
3.696000e-01 8.969140e-05
3.704500e-01 8.620161e-05
3.713000e-01 8.249883e-05
3.721500e-01 7.862088e-05
3.730000e-01 7.460460e-05
3.738500e-01 7.048562e-05
3.747000e-01 6.629807e-05
3.755500e-01 6.207440e-05
3.764000e-01 5.784531e-05
3.772500e-01 5.363960e-05
3.781000e-01 4.948400e-05
3.789500e-01 4.540287e-05
3.798000e-01 4.141804e-05
3.806500e-01 3.754873e-05
3.815000e-01 3.381147e-05
3.823500e-01 3.022044e-05
3.832000e-01 2.678753e-05
3.840500e-01 2.352269e-05
3.849000e-01 2.043381e-05
3.857500e-01 1.752656e-05
3.866000e-01 1.480417e-05
3.874500e-01 1.226742e-05
3.883000e-01 9.915158e-06
3.891500e-01 7.744890e-06
