-1.200000e-01 0.000000e+00
-1.191500e-01 0.000000e+00
-1.183000e-01 0.000000e+00
-1.174500e-01 0.000000e+00
-1.166000e-01 0.000000e+00
-1.157500e-01 0.000000e+00
-1.149000e-01 4.570243e-26
-1.140500e-01 5.111683e-25
-1.132000e-01 2.991338e-24
-1.123500e-01 1.211039e-23
-1.115000e-01 3.781051e-23
-1.106500e-01 9.603566e-23
-1.098000e-01 2.035817e-22
-1.089500e-01 3.615871e-22
-1.081000e-01 5.236980e-22
-1.072500e-01 5.511503e-22
-1.064000e-01 1.681060e-22
-1.055500e-01 -1.055855e-21
-1.047000e-01 -3.658594e-21
-1.038500e-01 -8.135801e-21
-1.030000e-01 -1.466814e-20
-1.021500e-01 -2.274218e-20
-1.013000e-01 -3.073868e-20
-1.004500e-01 -3.562558e-20
-9.960000e-02 -3.294660e-20
-9.875000e-02 -1.731271e-20
-9.790000e-02 1.644397e-20
-9.705000e-02 7.142962e-20
-9.620000e-02 1.463678e-19
-9.535000e-02 2.333078e-19
-9.450001e-02 3.161811e-19
-9.365001e-02 3.712259e-19
-9.280001e-02 3.702329e-19
-9.195001e-02 2.870942e-19
-9.110001e-02 1.071608e-19
-9.025000e-02 -1.624645e-19
-8.940001e-02 -4.850547e-19
-8.855000e-02 -7.931822e-19
-8.770001e-02 -9.986556e-19
-8.685000e-02 -1.015696e-18
-8.600000e-02 -7.955071e-19
-8.515000e-02 -3.646790e-19
-8.430000e-02 1.459814e-19
-8.345000e-02 4.993619e-19
-8.260000e-02 3.927013e-19
-8.175001e-02 -4.511957e-19
-8.090001e-02 -2.150182e-18
-8.005001e-02 -4.515541e-18
-7.920000e-02 -6.941318e-18
-7.835001e-02 -8.392858e-18
-7.750000e-02 -7.552233e-18
-7.665001e-02 -3.149618e-18
-7.580000e-02 5.544119e-18
-7.495001e-02 1.815873e-17
-7.410000e-02 3.276456e-17
-7.325000e-02 4.571974e-17
-7.240000e-02 5.202400e-17
-7.155000e-02 4.629772e-17
-7.070000e-02 2.434907e-17
-6.985001e-02 -1.491713e-17
-6.900001e-02 -6.770976e-17
-6.815000e-02 -1.242950e-16
-6.730001e-02 -1.693058e-16
-6.645000e-02 -1.838811e-16
-6.560001e-02 -1.497245e-16
-6.475000e-02 -5.463793e-17
-6.390001e-02 1.015015e-16
-6.305000e-02 3.018385e-16
-6.220000e-02 5.104408e-16
-6.135000e-02 6.745207e-16
-6.050000e-02 7.318138e-16
-5.965000e-02 6.228354e-16
-5.880000e-02 3.063969e-16
-5.795000e-02 -2.244997e-16
-5.710001e-02 -9.301097e-16
-5.625001e-02 -1.718559e-15
-5.540001e-02 -2.450607e-15
-5.455001e-02 -2.955837e-15
-5.370001e-02 -3.059211e-15
-5.285000e-02 -2.614435e-15
-5.200000e-02 -1.538557e-15
-5.115000e-02 1.588216e-16
-5.030000e-02 2.358043e-15
-4.945000e-02 4.828254e-15
-4.860000e-02 7.244486e-15
-4.775000e-02 9.221686e-15
-4.690000e-02 1.036153e-14
-4.605000e-02 1.030594e-14
-4.520001e-02 8.790743e-15
-4.435001e-02 5.693661e-15
-4.350001e-02 1.072294e-15
-4.265001e-02 -4.810687e-15
-4.180001e-02 -1.147737e-14
-4.095000e-02 -1.824232e-14
-4.010000e-02 -2.424281e-14
-3.925000e-02 -2.849793e-14
-3.840000e-02 -3.000345e-14
-3.755000e-02 -2.786597e-14
-3.670000e-02 -2.147312e-14
-3.585000e-02 -1.068406e-14
-3.500000e-02 3.989154e-15
-3.415000e-02 2.125290e-14
-3.330000e-02 3.900694e-14
-3.245001e-02 5.447099e-14
-3.160001e-02 6.449408e-14
-3.075001e-02 6.604482e-14
-2.990001e-02 5.683754e-14
-2.905000e-02 3.600127e-14
-2.820000e-02 4.658412e-15
-2.735000e-02 -3.374017e-14
-2.650000e-02 -7.346638e-14
-2.565000e-02 -1.070476e-13
-2.480000e-02 -1.262952e-13
-2.395000e-02 -1.237361e-13
-2.310000e-02 -9.424882e-14
-2.225000e-02 -3.661339e-14
-2.140000e-02 4.535593e-14
-2.055001e-02 1.424065e-13
-1.970001e-02 2.403916e-13
-1.885001e-02 3.218283e-13
-1.800001e-02 3.683436e-13
-1.715000e-02 3.636844e-13
-1.630000e-02 2.968206e-13
-1.545000e-02 1.645842e-13
-1.460000e-02 -2.667502e-14
-1.375000e-02 -2.608099e-13
-1.290000e-02 -5.131364e-13
-1.205000e-02 -7.531273e-13
-1.120000e-02 -9.481696e-13
-1.035000e-02 -1.067812e-12
-9.500004e-03 -1.087831e-12
-8.650005e-03 -9.934998e-13
-7.800005e-03 -7.815660e-13
-6.950006e-03 -4.607413e-13
-6.100006e-03 -5.073830e-14
-5.250007e-03 4.198413e-13
-4.400000e-03 9.163159e-13
-3.550000e-03 1.400960e-12
-2.700001e-03 1.835860e-12
-1.850002e-03 2.185378e-12
-1.000002e-03 2.418198e-12
-1.500025e-04 2.509054e-12
6.999969e-04 2.440335e-12
1.549996e-03 2.203658e-12
2.399996e-03 1.801311e-12
3.249995e-03 1.247307e-12
4.099995e-03 5.675396e-13
4.949994e-03 -2.014493e-13
5.799994e-03 -1.015477e-12
6.650001e-03 -1.827513e-12
7.499993e-03 -2.593779e-12
8.350000e-03 -3.280144e-12
9.199992e-03 -3.867388e-12
1.005000e-02 -4.353793e-12
1.089999e-02 -4.753759e-12
1.175000e-02 -5.091812e-12
1.259999e-02 -5.392420e-12
1.345000e-02 -5.667089e-12
1.430000e-02 -5.901298e-12
1.515000e-02 -6.044419e-12
1.600000e-02 -6.005736e-12
1.684999e-02 -5.658898e-12
1.770000e-02 -4.855746e-12
1.854999e-02 -3.448436e-12
1.940000e-02 -1.316978e-12
2.024999e-02 1.602396e-12
2.110000e-02 5.293375e-12
2.194999e-02 9.645223e-12
2.280000e-02 1.445155e-11
2.364999e-02 1.942346e-11
2.450000e-02 2.421546e-11
2.535000e-02 2.845991e-11
2.620000e-02 3.180380e-11
2.705000e-02 3.394107e-11
2.790000e-02 3.463445e-11
2.875000e-02 3.372342e-11
2.959999e-02 3.111782e-11
3.045000e-02 2.678060e-11
3.129999e-02 2.070597e-11
3.215000e-02 1.290094e-11
3.299999e-02 3.377809e-12
3.385000e-02 -7.836808e-12
3.469999e-02 -2.067524e-11
3.555000e-02 -3.498737e-11
3.639999e-02 -5.049248e-11
3.725000e-02 -6.673537e-11
3.810000e-02 -8.305859e-11
3.895000e-02 -9.860104e-11
3.980000e-02 -1.123287e-10
4.065000e-02 -1.230980e-10
4.150000e-02 -1.297445e-10
4.234999e-02 -1.311855e-10
4.320000e-02 -1.265210e-10
4.404999e-02 -1.151174e-10
4.490000e-02 -9.666019e-11
4.574999e-02 -7.117216e-11
4.660000e-02 -3.899420e-11
4.744999e-02 -7.404691e-13
4.830000e-02 4.275920e-11
4.914999e-02 9.051177e-11
5.000000e-02 1.413927e-10
5.085000e-02 1.941445e-10
5.170000e-02 2.473387e-10
5.255000e-02 2.993065e-10
5.339999e-02 3.480474e-10
5.425000e-02 3.911357e-10
5.509999e-02 4.256406e-10
5.595000e-02 4.480745e-10
5.679999e-02 4.543772e-10
5.765000e-02 4.399326e-10
5.849999e-02 3.996078e-10
5.935000e-02 3.277948e-10
6.019999e-02 2.184354e-10
6.105000e-02 6.500738e-11
6.190000e-02 -1.395449e-10
6.275000e-02 -4.029375e-10
6.360000e-02 -7.337284e-10
6.445000e-02 -1.141550e-09
6.530000e-02 -1.637371e-09
6.614999e-02 -2.233776e-09
6.700000e-02 -2.945262e-09
6.784999e-02 -3.788545e-09
6.870000e-02 -4.782911e-09
6.954999e-02 -5.950610e-09
7.040000e-02 -7.317369e-09
7.124999e-02 -8.912999e-09
7.210000e-02 -1.077220e-08
7.294999e-02 -1.293548e-08
7.380000e-02 -1.545028e-08
7.465000e-02 -1.837224e-08
7.550000e-02 -2.176660e-08
7.635000e-02 -2.570968e-08
7.720000e-02 -3.029045e-08
7.805000e-02 -3.561219e-08
7.889999e-02 -4.179415e-08
7.975000e-02 -4.897345e-08
8.059999e-02 -5.730707e-08
8.145000e-02 -6.697390e-08
8.229999e-02 -7.817763e-08
8.315000e-02 -9.114905e-08
8.399999e-02 -1.061499e-07
8.485000e-02 -1.234762e-07
8.570001e-02 -1.434623e-07
8.655000e-02 -1.664853e-07
8.740000e-02 -1.929701e-07
8.825000e-02 -2.233939e-07
8.910000e-02 -2.582916e-07
8.995000e-02 -2.982617e-07
9.080000e-02 -3.439714e-07
9.164999e-02 -3.961631e-07
9.250000e-02 -4.556600e-07
9.334999e-02 -5.233726e-07
9.420000e-02 -6.003063e-07
9.504999e-02 -6.875667e-07
9.590000e-02 -7.863687e-07
9.674999e-02 -8.980412e-07
9.760000e-02 -1.024035e-06
9.845001e-02 -1.165932e-06
9.930000e-02 -1.325443e-06
1.001500e-01 -1.504421e-06
1.010000e-01 -1.704860e-06
1.018500e-01 -1.928900e-06
1.027000e-01 -2.178824e-06
1.035500e-01 -2.457063e-06
1.044000e-01 -2.766190e-06
1.052500e-01 -3.108915e-06
1.061000e-01 -3.488083e-06
1.069500e-01 -3.906660e-06
1.078000e-01 -4.367725e-06
1.086500e-01 -4.874454e-06
1.095000e-01 -5.430102e-06
1.103500e-01 -6.037980e-06
1.112000e-01 -6.701433e-06
1.120500e-01 -7.423792e-06
1.129000e-01 -8.208363e-06
1.137500e-01 -9.058372e-06
1.146000e-01 -9.976907e-06
1.154500e-01 -1.096688e-05
1.163000e-01 -1.203099e-05
1.171500e-01 -1.317163e-05
1.180000e-01 -1.439080e-05
1.188500e-01 -1.569012e-05
1.197000e-01 -1.707069e-05
1.205500e-01 -1.853302e-05
1.214000e-01 -2.007696e-05
1.222500e-01 -2.170165e-05
1.231000e-01 -2.340532e-05
1.239500e-01 -2.518542e-05
1.248000e-01 -2.703830e-05
1.256500e-01 -2.895930e-05
1.265000e-01 -3.094253e-05
1.273500e-01 -3.298098e-05
1.282000e-01 -3.506626e-05
1.290500e-01 -3.718865e-05
1.299000e-01 -3.933698e-05
1.307500e-01 -4.149873e-05
1.316000e-01 -4.365985e-05
1.324500e-01 -4.580477e-05
1.333000e-01 -4.791642e-05
1.341500e-01 -4.997632e-05
1.350000e-01 -5.196454e-05
1.358500e-01 -5.385976e-05
1.367000e-01 -5.563946e-05
1.375500e-01 -5.727969e-05
1.384000e-01 -5.875562e-05
1.392500e-01 -6.004141e-05
1.401000e-01 -6.111046e-05
1.409500e-01 -6.193562e-05
1.418000e-01 -6.248941e-05
1.426500e-01 -6.274416e-05
1.435000e-01 -6.267253e-05
1.443500e-01 -6.224753e-05
1.452000e-01 -6.144276e-05
1.460500e-01 -6.023313e-05
1.469000e-01 -5.859475e-05
1.477500e-01 -5.650541e-05
1.486000e-01 -5.394509e-05
1.494500e-01 -5.089636e-05
1.503000e-01 -4.734411e-05
1.511500e-01 -4.327668e-05
1.520000e-01 -3.868574e-05
1.528500e-01 -3.356663e-05
1.537000e-01 -2.791874e-05
1.545500e-01 -2.174595e-05
1.554000e-01 -1.505619e-05
1.562500e-01 -7.862654e-06
1.571000e-01 -1.830258e-07
1.579500e-01 7.959919e-06
1.588000e-01 1.653823e-05
1.596500e-01 2.551883e-05
1.605000e-01 3.486379e-05
1.613500e-01 4.453009e-05
1.622000e-01 5.447016e-05
1.630500e-01 6.463144e-05
1.639000e-01 7.495737e-05
1.647500e-01 8.538720e-05
1.656000e-01 9.585683e-05
1.664500e-01 1.062986e-04
1.673000e-01 1.166426e-04
1.681500e-01 1.268168e-04
1.690000e-01 1.367472e-04
1.698500e-01 1.463596e-04
1.707000e-01 1.555791e-04
1.715500e-01 1.643313e-04
1.724000e-01 1.725432e-04
1.732500e-01 1.801433e-04
1.741000e-01 1.870632e-04
1.749500e-01 1.932375e-04
1.758000e-01 1.986049e-04
1.766500e-01 2.031090e-04
1.775000e-01 2.066983e-04
1.783500e-01 2.093277e-04
1.792000e-01 2.109585e-04
1.800500e-01 2.115587e-04
1.809000e-01 2.111042e-04
1.817500e-01 2.095783e-04
1.826000e-01 2.069726e-04
1.834500e-01 2.032869e-04
1.843000e-01 1.985293e-04
1.851500e-01 1.927166e-04
1.860000e-01 1.858737e-04
1.868500e-01 1.780341e-04
1.877000e-01 1.692391e-04
1.885500e-01 1.595374e-04
1.894000e-01 1.489856e-04
1.902500e-01 1.376467e-04
1.911000e-01 1.255901e-04
1.919500e-01 1.128912e-04
1.928000e-01 9.962977e-05
1.936500e-01 8.589042e-05
1.945000e-01 7.176100e-05
1.953500e-01 5.733193e-05
1.962000e-01 4.269563e-05
1.970500e-01 2.794541e-05
1.979000e-01 1.317495e-05
1.987500e-01 -1.522739e-06
1.996000e-01 -1.605670e-05
2.004500e-01 -3.033787e-05
2.013000e-01 -4.427995e-05
2.021500e-01 -5.780166e-05
2.030000e-01 -7.082504e-05
2.038500e-01 -8.327820e-05
2.047000e-01 -9.509418e-05
2.055500e-01 -1.062131e-04
2.064000e-01 -1.165805e-04
2.072500e-01 -1.261502e-04
2.081000e-01 -1.348822e-04
2.089500e-01 -1.427447e-04
2.098000e-01 -1.497125e-04
2.106500e-01 -1.557688e-04
2.115000e-01 -1.609039e-04
2.123500e-01 -1.651151e-04
2.132000e-01 -1.684069e-04
2.140500e-01 -1.707910e-04
2.149000e-01 -1.722853e-04
2.157500e-01 -1.729138e-04
2.166000e-01 -1.727062e-04
2.174500e-01 -1.716973e-04
2.183000e-01 -1.699266e-04
2.191500e-01 -1.674375e-04
2.200000e-01 -1.642772e-04
2.208500e-01 -1.604957e-04
2.217000e-01 -1.561455e-04
2.225500e-01 -1.512808e-04
2.234000e-01 -1.459570e-04
2.242500e-01 -1.402302e-04
2.251000e-01 -1.341567e-04
2.259500e-01 -1.277924e-04
2.268000e-01 -1.211921e-04
2.276500e-01 -1.144096e-04
2.285000e-01 -1.074968e-04
2.293500e-01 -1.005034e-04
2.302000e-01 -9.347698e-05
2.310500e-01 -8.646213e-05
2.319000e-01 -7.950057e-05
2.327500e-01 -7.263099e-05
2.336000e-01 -6.588879e-05
2.344500e-01 -5.930597e-05
2.353000e-01 -5.291113e-05
2.361500e-01 -4.672948e-05
2.370000e-01 -4.078272e-05
2.378500e-01 -3.508935e-05
2.387000e-01 -2.966439e-05
2.395500e-01 -2.451979e-05
2.404000e-01 -1.966450e-05
2.412500e-01 -1.510455e-05
2.421000e-01 -1.084328e-05
2.429500e-01 -6.881579e-06
2.438000e-01 -3.217974e-06
2.446500e-01 1.509984e-07
2.455000e-01 3.230822e-06
2.463500e-01 6.028432e-06
2.472000e-01 8.552365e-06
2.480500e-01 1.081233e-05
2.489000e-01 1.281908e-05
2.497500e-01 1.458422e-05
2.506000e-01 1.612013e-05
2.514500e-01 1.743961e-05
2.523000e-01 1.855579e-05
2.531500e-01 1.948205e-05
2.540000e-01 2.023183e-05
2.548500e-01 2.081854e-05
2.557000e-01 2.125539e-05
2.565500e-01 2.155528e-05
2.574000e-01 2.173078e-05
2.582500e-01 2.179414e-05
2.591000e-01 2.175703e-05
2.599500e-01 2.163065e-05
2.608000e-01 2.142572e-05
2.616500e-01 2.115239e-05
2.625000e-01 2.082019e-05
2.633500e-01 2.043818e-05
2.642000e-01 2.001474e-05
2.650500e-01 1.955766e-05
2.659000e-01 1.907416e-05
2.667500e-01 1.857086e-05
2.676000e-01 1.805379e-05
2.684500e-01 1.752839e-05
2.693000e-01 1.699963e-05
2.701500e-01 1.647179e-05
2.710000e-01 1.594884e-05
2.718500e-01 1.543409e-05
2.727000e-01 1.493050e-05
2.735500e-01 1.444050e-05
2.744000e-01 1.396620e-05
2.752500e-01 1.350919e-05
2.761000e-01 1.307072e-05
2.769500e-01 1.265168e-05
2.778000e-01 1.225257e-05
2.786500e-01 1.187354e-05
2.795000e-01 1.151444e-05
2.803500e-01 1.117484e-05
2.812000e-01 1.085404e-05
2.820500e-01 1.055112e-05
2.829000e-01 1.026495e-05
2.837500e-01 9.994229e-06
2.846000e-01 9.737538e-06
2.854500e-01 9.493353e-06
2.863000e-01 9.260051e-06
2.871500e-01 9.035957e-06
2.880000e-01 8.819377e-06
2.888500e-01 8.608599e-06
2.897000e-01 8.401936e-06
2.905500e-01 8.197770e-06
2.914000e-01 7.994544e-06
2.922500e-01 7.790830e-06
2.931000e-01 7.585323e-06
2.939500e-01 7.376881e-06
2.948000e-01 7.164537e-06
2.956500e-01 6.947515e-06
2.965000e-01 6.725254e-06
2.973500e-01 6.497386e-06
2.982000e-01 6.263767e-06
2.990500e-01 6.024430e-06
2.999000e-01 5.779637e-06
3.007500e-01 5.529816e-06
3.016000e-01 5.275594e-06
3.024500e-01 5.017772e-06
3.033000e-01 4.757318e-06
3.041500e-01 4.495344e-06
3.050000e-01 4.233117e-06
3.058500e-01 3.972000e-06
3.067000e-01 3.713464e-06
3.075500e-01 3.459043e-06
3.084000e-01 3.210305e-06
3.092500e-01 2.968836e-06
3.101000e-01 2.736184e-06
3.109500e-01 2.513872e-06
3.118000e-01 2.303332e-06
3.126500e-01 2.105913e-06
3.135000e-01 1.922849e-06
3.143500e-01 1.755268e-06
3.152000e-01 1.604149e-06
3.160500e-01 1.470337e-06
3.169000e-01 1.354526e-06
3.177500e-01 1.257240e-06
3.186000e-01 1.178836e-06
3.194500e-01 1.119492e-06
3.203000e-01 1.079179e-06
3.211500e-01 1.057693e-06
3.220000e-01 1.054613e-06
3.228500e-01 1.069332e-06
3.237000e-01 1.101062e-06
3.245500e-01 1.148836e-06
3.254000e-01 1.211539e-06
3.262500e-01 1.287936e-06
3.271000e-01 1.376661e-06
3.279500e-01 1.476285e-06
3.288000e-01 1.585286e-06
3.296500e-01 1.702116e-06
3.305000e-01 1.825166e-06
3.313500e-01 1.952815e-06
3.322000e-01 2.083431e-06
3.330500e-01 2.215380e-06
3.339000e-01 2.347038e-06
3.347500e-01 2.476827e-06
3.356000e-01 2.603220e-06
3.364500e-01 2.724754e-06
3.373000e-01 2.840064e-06
3.381500e-01 2.947892e-06
3.390000e-01 3.047116e-06
3.398500e-01 3.136737e-06
3.407000e-01 3.215907e-06
3.415500e-01 3.283923e-06
3.424000e-01 3.340234e-06
3.432500e-01 3.384429e-06
3.441000e-01 3.416244e-06
3.449500e-01 3.435531e-06
3.458000e-01 3.442305e-06
3.466500e-01 3.436680e-06
3.475000e-01 3.418914e-06
3.483500e-01 3.389385e-06
3.492000e-01 3.348584e-06
3.500500e-01 3.297123e-06
3.509000e-01 3.235702e-06
3.517500e-01 3.165128e-06
3.526000e-01 3.086260e-06
3.534500e-01 3.000038e-06
3.543000e-01 2.907426e-06
3.551500e-01 2.809426e-06
3.560000e-01 2.707043e-06
3.568500e-01 2.601282e-06
3.577000e-01 2.493133e-06
3.585500e-01 2.383568e-06
3.594000e-01 2.273516e-06
3.602500e-01 2.163868e-06
3.611000e-01 2.055455e-06
3.619500e-01 1.949041e-06
3.628000e-01 1.845309e-06
3.636500e-01 1.744841e-06
3.645000e-01 1.648113e-06
3.653500e-01 1.555478e-06
3.662000e-01 1.467162e-06
3.670500e-01 1.383255e-06
3.679000e-01 1.303715e-06
3.687500e-01 1.228368e-06
3.696000e-01 1.156912e-06
3.704500e-01 1.088924e-06
3.713000e-01 1.023863e-06
3.721500e-01 9.610769e-07
3.730000e-01 8.998056e-07
3.738500e-01 8.391820e-07
3.747000e-01 7.782381e-07
3.755500e-01 7.159110e-07
3.764000e-01 6.510510e-07
3.772500e-01 5.824369e-07
3.781000e-01 5.087937e-07
3.789500e-01 4.288164e-07
3.798000e-01 3.411936e-07
3.806500e-01 2.446376e-07
3.815000e-01 1.379064e-07
3.823500e-01 1.983033e-08
3.832000e-01 -1.106702e-07
3.840500e-01 -2.545708e-07
3.849000e-01 -4.127320e-07
3.857500e-01 -5.858885e-07
3.866000e-01 -7.746481e-07
3.874500e-01 -9.794795e-07
3.883000e-01 -1.200711e-06
3.891500e-01 -1.438508e-06
