-1.200000e-01 0.000000e+00
-1.191500e-01 0.000000e+00
-1.183000e-01 0.000000e+00
-1.174500e-01 0.000000e+00
-1.166000e-01 0.000000e+00
-1.157500e-01 0.000000e+00
-1.149000e-01 0.000000e+00
-1.140500e-01 0.000000e+00
-1.132000e-01 0.000000e+00
-1.123500e-01 0.000000e+00
-1.115000e-01 0.000000e+00
-1.106500e-01 0.000000e+00
-1.098000e-01 1.004623e-39
-1.089500e-01 2.104178e-38
-1.081000e-01 2.245497e-37
-1.072500e-01 1.621702e-36
-1.064000e-01 8.876620e-36
-1.055500e-01 3.905851e-35
-1.047000e-01 1.428285e-34
-1.038500e-01 4.415589e-34
-1.030000e-01 1.157211e-33
-1.021500e-01 2.524805e-33
-1.013000e-01 4.279565e-33
-1.004500e-01 4.076440e-33
-9.960000e-02 -6.174046e-33
-9.875000e-02 -4.709381e-32
-9.790000e-02 -1.615962e-31
-9.705000e-02 -4.236630e-31
-9.620000e-02 -9.342728e-31
-9.535000e-02 -1.780177e-30
-9.450001e-02 -2.917280e-30
-9.365001e-02 -3.934306e-30
-9.280001e-02 -3.672722e-30
-9.195001e-02 2.482247e-31
-9.110001e-02 1.180011e-29
-9.025000e-02 3.636666e-29
-8.940001e-02 7.929078e-29
-8.855000e-02 1.422142e-28
-8.770001e-02 2.163877e-28
-8.685000e-02 2.728945e-28
-8.600000e-02 2.515010e-28
-8.515000e-02 5.279868e-29
-8.430000e-02 -4.578409e-28
-8.345000e-02 -1.422308e-27
-8.260000e-02 -2.924257e-27
-8.175001e-02 -4.876676e-27
-8.090001e-02 -6.866355e-27
-8.005001e-02 -7.984108e-27
-7.920000e-02 -6.706040e-27
-7.835001e-02 -9.329065e-28
-7.750000e-02 1.167220e-26
-7.665001e-02 3.290569e-26
-7.580000e-02 6.272097e-26
-7.495001e-02 9.746334e-26
-7.410000e-02 1.279505e-25
-7.325000e-02 1.380378e-25
-7.240000e-02 1.046577e-25
-7.155000e-02 5.690928e-28
-7.070000e-02 -1.989794e-25
-6.985001e-02 -5.049850e-25
-6.900001e-02 -8.993013e-25
-6.815000e-02 -1.317466e-24
-6.730001e-02 -1.634484e-24
-6.645000e-02 -1.660758e-24
-6.560001e-02 -1.157020e-24
-6.475000e-02 1.230473e-25
-6.390001e-02 2.357096e-24
-6.305000e-02 5.547107e-24
-6.220000e-02 9.394289e-24
-6.135000e-02 1.318358e-23
-6.050000e-02 1.572027e-23
-5.965000e-02 1.537195e-23
-5.880000e-02 1.027018e-23
-5.795000e-02 -1.289270e-24
-5.710001e-02 -2.024412e-23
-5.625001e-02 -4.601544e-23
-5.540001e-02 -7.573818e-23
-5.455001e-02 -1.036803e-22
-5.370001e-02 -1.211215e-22
-5.285000e-02 -1.169852e-22
-5.200000e-02 -7.946874e-23
-5.115000e-02 1.223462e-24
-5.030000e-02 1.291793e-22
-4.945000e-02 2.985758e-22
-4.860000e-02 4.898050e-22
-4.775000e-02 6.670968e-22
-4.690000e-02 7.789995e-22
-4.605000e-02 7.630189e-22
-4.520001e-02 5.553082e-22
-4.435001e-02 1.054637e-22
-4.350001e-02 -6.047289e-22
-4.265001e-02 -1.541250e-21
-4.180001e-02 -2.600654e-21
-4.095000e-02 -3.601089e-21
-4.010000e-02 -4.287278e-21
-3.925000e-02 -4.354557e-21
-3.840000e-02 -3.494805e-21
-3.755000e-02 -1.463406e-21
-3.670000e-02 1.838675e-21
-3.585000e-02 6.279514e-21
-3.500000e-02 1.142472e-20
-3.415000e-02 1.650101e-20
-3.330000e-02 2.041681e-20
-3.245001e-02 2.185837e-20
-3.160001e-02 1.947101e-20
-3.075001e-02 1.212114e-20
-2.990001e-02 -7.839156e-22
-2.905000e-02 -1.896132e-20
-2.820000e-02 -4.096556e-20
-2.735000e-02 -6.402398e-20
-2.650000e-02 -8.407269e-20
-2.565000e-02 -9.605906e-20
-2.480000e-02 -9.454749e-20
-2.395000e-02 -7.461930e-20
-2.310000e-02 -3.299772e-20
-2.225000e-02 3.073795e-20
-2.140000e-02 1.130477e-19
-2.055001e-02 2.056798e-19
-1.970001e-02 2.955340e-19
-1.885001e-02 3.653667e-19
-1.800001e-02 3.954924e-19
-1.715000e-02 3.664925e-19
-1.630000e-02 2.627759e-19
-1.545000e-02 7.662074e-20
-1.460000e-02 -1.878644e-19
-1.375000e-02 -5.115878e-19
-1.290000e-02 -8.589340e-19
-1.205000e-02 -1.178601e-18
-1.120000e-02 -1.407401e-18
-1.035000e-02 -1.477257e-18
-9.500004e-03 -1.325175e-18
-8.650005e-03 -9.053681e-19
-7.800005e-03 -2.021220e-19
-6.950006e-03 7.585206e-19
-6.100006e-03 1.900556e-18
-5.250007e-03 3.095639e-18
-4.400000e-03 4.168540e-18
-3.550000e-03 4.911787e-18
-2.700001e-03 5.109574e-18
-1.850002e-03 4.569730e-18
-1.000002e-03 3.160702e-18
-1.500025e-04 8.491075e-19
6.999969e-04 -2.267986e-18
1.549996e-03 -5.942480e-18
2.399996e-03 -9.772610e-18
3.249995e-03 -1.322331e-17
4.099995e-03 -1.567225e-17
4.949994e-03 -1.648099e-17
5.799994e-03 -1.508661e-17
6.650001e-03 -1.110514e-17
7.499993e-03 -4.433941e-18
8.350000e-03 4.662437e-18
9.199992e-03 1.549954e-17
1.005000e-02 2.696918e-17
1.089999e-02 3.759638e-17
1.175000e-02 4.566277e-17
1.259999e-02 4.939391e-17
1.345000e-02 4.719768e-17
1.430000e-02 3.793142e-17
1.515000e-02 2.116595e-17
1.600000e-02 -2.591606e-18
1.684999e-02 -3.175604e-17
1.770000e-02 -6.364063e-17
1.854999e-02 -9.458025e-17
1.940000e-02 -1.202144e-16
2.024999e-02 -1.359246e-16
2.110000e-02 -1.373982e-16
2.194999e-02 -1.212674e-16
2.280000e-02 -8.575303e-17
2.364999e-02 -3.122874e-17
2.450000e-02 3.938618e-17
2.535000e-02 1.204883e-16
2.620000e-02 2.039735e-16
2.705000e-02 2.797783e-16
2.790000e-02 3.367767e-16
2.875000e-02 3.639810e-16
2.959999e-02 3.519508e-16
3.045000e-02 2.942675e-16
3.129999e-02 1.889008e-16
3.215000e-02 3.927748e-17
3.299999e-02 -1.451319e-16
3.385000e-02 -3.488649e-16
3.469999e-02 -5.512582e-16
3.555000e-02 -7.280061e-16
3.639999e-02 -8.534249e-16
3.725000e-02 -9.032659e-16
3.810000e-02 -8.578275e-16
3.895000e-02 -7.050478e-16
3.980000e-02 -4.432023e-16
4.065000e-02 -8.283215e-17
4.150000e-02 3.524433e-16
4.234999e-02 8.264954e-16
4.320000e-02 1.292779e-15
4.404999e-02 1.697935e-15
4.490000e-02 1.986717e-15
4.574999e-02 2.107865e-15
4.660000e-02 2.020414e-15
4.744999e-02 1.699780e-15
4.830000e-02 1.142910e-15
4.914999e-02 3.718104e-16
5.000000e-02 -5.651649e-16
5.085000e-02 -1.594708e-15
5.170000e-02 -2.622826e-15
5.255000e-02 -3.541896e-15
5.339999e-02 -4.240117e-15
5.425000e-02 -4.612624e-15
5.509999e-02 -4.573308e-15
5.595000e-02 -4.066197e-15
5.679999e-02 -3.075108e-15
5.765000e-02 -1.630421e-15
5.849999e-02 1.880780e-16
5.935000e-02 2.253013e-15
6.019999e-02 4.396212e-15
6.105000e-02 6.420322e-15
6.190000e-02 8.114590e-15
6.275000e-02 9.273682e-15
6.360000e-02 9.717972e-15
6.445000e-02 9.313494e-15
6.530000e-02 7.989607e-15
6.614999e-02 5.752484e-15
6.700000e-02 2.692750e-15
6.784999e-02 -1.013842e-15
6.870000e-02 -5.113459e-15
6.954999e-02 -9.288844e-15
7.040000e-02 -1.318091e-14
7.124999e-02 -1.641592e-14
7.210000e-02 -1.863621e-14
7.294999e-02 -1.953221e-14
7.380000e-02 -1.887311e-14
7.465000e-02 -1.653360e-14
7.550000e-02 -1.251413e-14
7.635000e-02 -6.952890e-15
7.720000e-02 -1.278179e-16
7.805000e-02 7.552107e-15
7.889999e-02 1.556634e-14
7.975000e-02 2.331232e-14
8.059999e-02 3.014380e-14
8.145000e-02 3.541568e-14
8.229999e-02 3.853296e-14
8.315000e-02 3.900038e-14
8.399999e-02 3.646978e-14
8.485000e-02 3.078145e-14
8.570001e-02 2.199599e-14
8.655000e-02 1.041378e-14
8.740000e-02 -3.420714e-15
8.825000e-02 -1.873177e-14
8.910000e-02 -3.454331e-14
8.995000e-02 -4.972768e-14
9.080000e-02 -6.307113e-14
9.164999e-02 -7.335276e-14
9.250000e-02 -7.943340e-14
9.334999e-02 -8.034860e-14
9.420000e-02 -7.539970e-14
9.504999e-02 -6.423577e-14
9.590000e-02 -4.691967e-14
9.674999e-02 -2.397101e-14
9.760000e-02 3.619121e-15
9.845001e-02 3.440653e-14
9.930000e-02 6.654725e-14
1.001500e-01 9.788549e-14
1.010000e-01 1.260741e-13
1.018500e-01 1.487209e-13
1.027000e-01 1.635541e-13
1.035500e-01 1.685960e-13
1.044000e-01 1.623334e-13
1.052500e-01 1.438726e-13
1.061000e-01 1.130672e-13
1.069500e-01 7.060636e-14
1.078000e-01 1.805488e-14
1.086500e-01 -4.216198e-14
1.095000e-01 -1.068326e-13
1.103500e-01 -1.720918e-13
1.112000e-01 -2.336094e-13
1.120500e-01 -2.868257e-13
1.129000e-01 -3.272248e-13
1.137500e-01 -3.506301e-13
1.146000e-01 -3.535074e-13
1.154500e-01 -3.332581e-13
1.163000e-01 -2.884825e-13
1.171500e-01 -2.191970e-13
1.180000e-01 -1.269882e-13
1.188500e-01 -1.508659e-14
1.197000e-01 1.116503e-13
1.205500e-01 2.468557e-13
1.214000e-01 3.828764e-13
1.222500e-01 5.110994e-13
1.231000e-01 6.223768e-13
1.239500e-01 7.075328e-13
1.248000e-01 7.579372e-13
1.256500e-01 7.661109e-13
1.265000e-01 7.263384e-13
1.273500e-01 6.352403e-13
1.282000e-01 4.922717e-13
1.290500e-01 3.000979e-13
1.299000e-01 6.481445e-14
1.307500e-01 -2.040284e-13
1.316000e-01 -4.936190e-13
1.324500e-01 -7.883070e-13
1.333000e-01 -1.070258e-12
1.341500e-01 -1.320318e-12
1.350000e-01 -1.519062e-12
1.358500e-01 -1.647976e-12
1.367000e-01 -1.690701e-12
1.375500e-01 -1.634295e-12
1.384000e-01 -1.470402e-12
1.392500e-01 -1.196272e-12
1.401000e-01 -8.155519e-13
1.409500e-01 -3.387655e-13
1.418000e-01 2.165636e-13
1.426500e-01 8.261934e-13
1.435000e-01 1.459874e-12
1.443500e-01 2.082488e-12
1.452000e-01 2.655595e-12
1.460500e-01 3.139337e-12
1.469000e-01 3.494631e-12
1.477500e-01 3.685549e-12
1.486000e-01 3.681760e-12
1.494500e-01 3.460925e-12
1.503000e-01 3.010859e-12
1.511500e-01 2.331356e-12
1.520000e-01 1.435487e-12
1.528500e-01 3.502871e-13
1.537000e-01 -8.833068e-13
1.545500e-01 -2.211318e-12
1.554000e-01 -3.568438e-12
1.562500e-01 -4.880546e-12
1.571000e-01 -6.067995e-12
1.579500e-01 -7.049538e-12
1.588000e-01 -7.746729e-12
1.596500e-01 -8.088609e-12
1.605000e-01 -8.016427e-12
1.613500e-01 -7.488149e-12
1.622000e-01 -6.482484e-12
1.630500e-01 -5.002141e-12
1.639000e-01 -3.076134e-12
1.647500e-01 -7.608305e-13
1.656000e-01 1.860320e-12
1.664500e-01 4.678566e-12
1.673000e-01 7.563136e-12
1.681500e-01 1.036599e-11
1.690000e-01 1.292795e-11
1.698500e-01 1.508598e-11
1.707000e-01 1.668135e-11
1.715500e-01 1.756837e-11
1.724000e-01 1.762334e-11
1.732500e-01 1.675307e-11
1.741000e-01 1.490284e-11
1.749500e-01 1.206306e-11
1.758000e-01 8.274268e-12
1.766500e-01 3.630148e-12
1.775000e-01 -1.721969e-12
1.783500e-01 -7.583164e-12
1.792000e-01 -1.370790e-11
1.800500e-01 -1.981175e-11
1.809000e-01 -2.558193e-11
1.817500e-01 -3.069023e-11
1.826000e-01 -3.480800e-11
1.834500e-01 -3.762263e-11
1.843000e-01 -3.885477e-11
1.851500e-01 -3.827547e-11
1.860000e-01 -3.572251e-11
1.868500e-01 -3.111487e-11
1.877000e-01 -2.446438e-11
1.885500e-01 -1.588405e-11
1.894000e-01 -5.592032e-12
1.902500e-01 6.089120e-12
1.911000e-01 1.873829e-11
1.919500e-01 3.184686e-11
1.928000e-01 4.483486e-11
1.936500e-01 5.707191e-11
1.945000e-01 6.790213e-11
1.953500e-01 7.667263e-11
1.962000e-01 8.276415e-11
1.970500e-01 8.562290e-11
1.979000e-01 8.479205e-11
1.987500e-01 7.994214e-11
1.996000e-01 7.089784e-11
2.004500e-01 5.766060e-11
2.013000e-01 4.042517e-11
2.021500e-01 1.958910e-11
2.030000e-01 -4.246455e-12
2.038500e-01 -3.028467e-11
2.047000e-01 -5.755105e-11
2.055500e-01 -8.492079e-11
2.064000e-01 -1.111558e-10
2.072500e-01 -1.349496e-10
2.081000e-01 -1.549799e-10
2.089500e-01 -1.699655e-10
2.098000e-01 -1.787268e-10
2.106500e-01 -1.802457e-10
2.115000e-01 -1.737242e-10
2.123500e-01 -1.586368e-10
2.132000e-01 -1.347764e-10
2.140500e-01 -1.022888e-10
2.149000e-01 -6.169651e-11
2.157500e-01 -1.390826e-11
2.166000e-01 3.978594e-11
2.174500e-01 9.773482e-11
2.183000e-01 1.579613e-10
2.191500e-01 2.182126e-10
2.200000e-01 2.760246e-10
2.208500e-01 3.287982e-10
2.217000e-01 3.738878e-10
2.225500e-01 4.086956e-10
2.234000e-01 4.307744e-10
2.242500e-01 4.379310e-10
2.251000e-01 4.283281e-10
2.259500e-01 4.005832e-10
2.268000e-01 3.538559e-10
2.276500e-01 2.879245e-10
2.285000e-01 2.032452e-10
2.293500e-01 1.009935e-10
2.302000e-01 -1.691595e-11
2.310500e-01 -1.478318e-10
2.319000e-01 -2.883877e-10
2.327500e-01 -4.345468e-10
2.336000e-01 -5.816598e-10
2.344500e-01 -7.245385e-10
2.353000e-01 -8.575359e-10
2.361500e-01 -9.746292e-10
2.370000e-01 -1.069498e-09
2.378500e-01 -1.135591e-09
2.387000e-01 -1.166177e-09
2.395500e-01 -1.154372e-09
2.404000e-01 -1.093121e-09
2.412500e-01 -9.751655e-10
2.421000e-01 -7.929350e-10
2.429500e-01 -5.384063e-10
2.438000e-01 -2.028880e-10
2.446500e-01 2.232601e-10
2.455000e-01 7.509845e-10
2.463500e-01 1.392980e-09
2.472000e-01 2.164224e-09
2.480500e-01 3.082602e-09
2.489000e-01 4.169648e-09
2.497500e-01 5.451377e-09
2.506000e-01 6.959247e-09
2.514500e-01 8.731231e-09
2.523000e-01 1.081301e-08
2.531500e-01 1.325935e-08
2.540000e-01 1.613550e-08
2.548500e-01 1.951891e-08
2.557000e-01 2.350096e-08
2.565500e-01 2.818898e-08
2.574000e-01 3.370839e-08
2.582500e-01 4.020507e-08
2.591000e-01 4.784804e-08
2.599500e-01 5.683221e-08
2.608000e-01 6.738165e-08
2.616500e-01 7.975301e-08
2.625000e-01 9.423917e-08
2.633500e-01 1.111735e-07
2.642000e-01 1.309341e-07
2.650500e-01 1.539490e-07
2.659000e-01 1.807009e-07
2.667500e-01 2.117335e-07
2.676000e-01 2.476568e-07
2.684500e-01 2.891541e-07
2.693000e-01 3.369890e-07
2.701500e-01 3.920119e-07
2.710000e-01 4.551693e-07
2.718500e-01 5.275098e-07
2.727000e-01 6.101942e-07
2.735500e-01 7.045036e-07
2.744000e-01 8.118480e-07
2.752500e-01 9.337757e-07
2.761000e-01 1.071982e-06
2.769500e-01 1.228318e-06
2.778000e-01 1.404801e-06
2.786500e-01 1.603619e-06
2.795000e-01 1.827145e-06
2.803500e-01 2.077936e-06
2.812000e-01 2.358745e-06
2.820500e-01 2.672523e-06
2.829000e-01 3.022426e-06
2.837500e-01 3.411807e-06
2.846000e-01 3.844229e-06
2.854500e-01 4.323454e-06
2.863000e-01 4.853433e-06
2.871500e-01 5.438307e-06
2.880000e-01 6.082388e-06
2.888500e-01 6.790142e-06
2.897000e-01 7.566169e-06
2.905500e-01 8.415177e-06
2.914000e-01 9.341948e-06
2.922500e-01 1.035131e-05
2.931000e-01 1.144808e-05
2.939500e-01 1.263702e-05
2.948000e-01 1.392279e-05
2.956500e-01 1.530986e-05
2.965000e-01 1.680247e-05
2.973500e-01 1.840453e-05
2.982000e-01 2.011955e-05
2.990500e-01 2.195052e-05
2.999000e-01 2.389985e-05
3.007500e-01 2.596924e-05
3.016000e-01 2.815957e-05
3.024500e-01 3.047080e-05
3.033000e-01 3.290179e-05
3.041500e-01 3.545028e-05
3.050000e-01 3.811269e-05
3.058500e-01 4.088399e-05
3.067000e-01 4.375759e-05
3.075500e-01 4.672529e-05
3.084000e-01 4.977698e-05
3.092500e-01 5.290078e-05
3.101000e-01 5.608268e-05
3.109500e-01 5.930665e-05
3.118000e-01 6.255449e-05
3.126500e-01 6.580581e-05
3.135000e-01 6.903787e-05
3.143500e-01 7.222573e-05
3.152000e-01 7.534221e-05
3.160500e-01 7.835787e-05
3.169000e-01 8.124105e-05
3.177500e-01 8.395826e-05
3.186000e-01 8.647387e-05
3.194500e-01 8.875065e-05
3.203000e-01 9.074987e-05
3.211500e-01 9.243139e-05
3.220000e-01 9.375418e-05
3.228500e-01 9.467651e-05
3.237000e-01 9.515633e-05
3.245500e-01 9.515159e-05
3.254000e-01 9.462079e-05
3.262500e-01 9.352363e-05
3.271000e-01 9.182101e-05
3.279500e-01 8.947554e-05
3.288000e-01 8.645288e-05
3.296500e-01 8.272129e-05
3.305000e-01 7.825255e-05
3.313500e-01 7.302294e-05
3.322000e-01 6.701287e-05
3.330500e-01 6.020821e-05
3.339000e-01 5.260047e-05
3.347500e-01 4.418726e-05
3.356000e-01 3.497254e-05
3.364500e-01 2.496733e-05
3.373000e-01 1.419008e-05
3.381500e-01 2.666470e-06
3.390000e-01 -9.569720e-06
3.398500e-01 -2.247732e-05
3.407000e-01 -3.600688e-05
3.415500e-01 -5.010126e-05
3.424000e-01 -6.469544e-05
3.432500e-01 -7.971689e-05
3.441000e-01 -9.508596e-05
3.449500e-01 -1.107163e-04
3.458000e-01 -1.265149e-04
3.466500e-01 -1.423835e-04
3.475000e-01 -1.582184e-04
3.483500e-01 -1.739120e-04
3.492000e-01 -1.893532e-04
3.500500e-01 -2.044284e-04
3.509000e-01 -2.190224e-04
3.517500e-01 -2.330198e-04
3.526000e-01 -2.463058e-04
3.534500e-01 -2.587670e-04
3.543000e-01 -2.702935e-04
3.551500e-01 -2.807786e-04
3.560000e-01 -2.901213e-04
3.568500e-01 -2.982268e-04
3.577000e-01 -3.050072e-04
3.585500e-01 -3.103831e-04
3.594000e-01 -3.142845e-04
3.602500e-01 -3.166514e-04
3.611000e-01 -3.174347e-04
3.619500e-01 -3.165966e-04
3.628000e-01 -3.141121e-04
3.636500e-01 -3.099682e-04
3.645000e-01 -3.041652e-04
3.653500e-01 -2.967161e-04
3.662000e-01 -2.876477e-04
3.670500e-01 -2.769994e-04
3.679000e-01 -2.648238e-04
3.687500e-01 -2.511857e-04
3.696000e-01 -2.361621e-04
3.704500e-01 -2.198414e-04
3.713000e-01 -2.023225e-04
3.721500e-01 -1.837143e-04
3.730000e-01 -1.641343e-04
3.738500e-01 -1.437077e-04
3.747000e-01 -1.225668e-04
3.755500e-01 -1.008487e-04
3.764000e-01 -7.869483e-05
3.772500e-01 -5.624943e-05
3.781000e-01 -3.365845e-05
3.789500e-01 -1.106752e-05
3.798000e-01 1.137855e-05
3.806500e-01 3.353817e-05
3.815000e-01 5.527209e-05
3.823500e-01 7.644729e-05
3.832000e-01 9.693613e-05
3.840500e-01 1.166186e-04
3.849000e-01 1.353829e-04
3.857500e-01 1.531258e-04
3.866000e-01 1.697540e-04
3.874500e-01 1.851854e-04
3.883000e-01 1.993480e-04
3.891500e-01 2.121815e-04
