-1.200000e-01 0.000000e+00
-1.191500e-01 0.000000e+00
-1.183000e-01 1.806477e-14
-1.174500e-01 1.148140e-13
-1.166000e-01 4.174075e-13
-1.157500e-01 1.106515e-12
-1.149000e-01 2.337078e-12
-1.140500e-01 4.094023e-12
-1.132000e-01 6.027209e-12
-1.123500e-01 7.346967e-12
-1.115000e-01 6.872497e-12
-1.106500e-01 3.296707e-12
-1.098000e-01 -4.336755e-12
-1.089500e-01 -1.603899e-11
-1.081000e-01 -3.034219e-11
-1.072500e-01 -4.404840e-11
-1.064000e-01 -5.245824e-11
-1.055500e-01 -5.017831e-11
-1.047000e-01 -3.244654e-11
-1.038500e-01 3.265265e-12
-1.030000e-01 5.576162e-11
-1.021500e-01 1.192001e-10
-1.013000e-01 1.831351e-10
-1.004500e-01 2.337473e-10
-9.960000e-02 2.562055e-10
-9.875000e-02 2.377979e-10
-9.790000e-02 1.712142e-10
-9.705000e-02 5.721882e-11
-9.620000e-02 -9.400179e-11
-9.535000e-02 -2.633120e-10
-9.450001e-02 -4.250457e-10
-9.365001e-02 -5.510563e-10
-9.280001e-02 -6.156821e-10
-9.195001e-02 -6.006493e-10
-9.110001e-02 -4.988807e-10
-9.025000e-02 -3.163596e-10
-8.940001e-02 -7.158822e-11
-8.855000e-02 2.073145e-10
-8.770001e-02 4.873213e-10
-8.685000e-02 7.360567e-10
-8.600000e-02 9.270682e-10
-8.515000e-02 1.043728e-09
-8.430000e-02 1.081003e-09
-8.345000e-02 1.044785e-09
-8.260000e-02 9.490441e-10
-8.175001e-02 8.115031e-10
-8.090001e-02 6.488982e-10
-8.005001e-02 4.729229e-10
-7.920000e-02 2.878242e-10
-7.835001e-02 9.024510e-11
-7.750000e-02 -1.285868e-10
-7.665001e-02 -3.787151e-10
-7.580000e-02 -6.661983e-10
-7.495001e-02 -9.878188e-10
-7.410000e-02 -1.326932e-09
-7.325000e-02 -1.651450e-09
-7.240000e-02 -1.914675e-09
-7.155000e-02 -2.059191e-09
-7.070000e-02 -2.023597e-09
-6.985001e-02 -1.751329e-09
-6.900001e-02 -1.200432e-09
-6.815000e-02 -3.529327e-10
-6.730001e-02 7.776526e-10
-6.645000e-02 2.141983e-09
-6.560001e-02 3.654670e-09
-6.475000e-02 5.198566e-09
-6.390001e-02 6.633353e-09
-6.305000e-02 7.807397e-09
-6.220000e-02 8.571326e-09
-6.135000e-02 8.791225e-09
-6.050000e-02 8.359316e-09
-5.965000e-02 7.200134e-09
-5.880000e-02 5.270839e-09
-5.795000e-02 2.555296e-09
-5.710001e-02 -9.476780e-10
-5.625001e-02 -5.239963e-09
-5.540001e-02 -1.034154e-08
-5.455001e-02 -1.630682e-08
-5.370001e-02 -2.323742e-08
-5.285000e-02 -3.128958e-08
-5.200000e-02 -4.067585e-08
-5.115000e-02 -5.166133e-08
-5.030000e-02 -6.455711e-08
-4.945000e-02 -7.971347e-08
-4.860000e-02 -9.751604e-08
-4.775000e-02 -1.183881e-07
-4.690000e-02 -1.428005e-07
-4.605000e-02 -1.712900e-07
-4.520001e-02 -2.044854e-07
-4.435001e-02 -2.431373e-07
-4.350001e-02 -2.881507e-07
-4.265001e-02 -3.406153e-07
-4.180001e-02 -4.018309e-07
-4.095000e-02 -4.733288e-07
-4.010000e-02 -5.568834e-07
-3.925000e-02 -6.545236e-07
-3.840000e-02 -7.685396e-07
-3.755000e-02 -9.014934e-07
-3.670000e-02 -1.056235e-06
-3.585000e-02 -1.235925e-06
-3.500000e-02 -1.444072e-06
-3.415000e-02 -1.684577e-06
-3.330000e-02 -1.961790e-06
-3.245001e-02 -2.280572e-06
-3.160001e-02 -2.646369e-06
-3.075001e-02 -3.065277e-06
-2.990001e-02 -3.544113e-06
-2.905000e-02 -4.090489e-06
-2.820000e-02 -4.712863e-06
-2.735000e-02 -5.420608e-06
-2.650000e-02 -6.224062e-06
-2.565000e-02 -7.134579e-06
-2.480000e-02 -8.164570e-06
-2.395000e-02 -9.327566e-06
-2.310000e-02 -1.063824e-05
-2.225000e-02 -1.211248e-05
-2.140000e-02 -1.376740e-05
-2.055001e-02 -1.562141e-05
-1.970001e-02 -1.769427e-05
-1.885001e-02 -2.000708e-05
-1.800001e-02 -2.258236e-05
-1.715000e-02 -2.544405e-05
-1.630000e-02 -2.861750e-05
-1.545000e-02 -3.212947e-05
-1.460000e-02 -3.600811e-05
-1.375000e-02 -4.028275e-05
-1.290000e-02 -4.498405e-05
-1.205000e-02 -5.014360e-05
-1.120000e-02 -5.579387e-05
-1.035000e-02 -6.196800e-05
-9.500004e-03 -6.869952e-05
-8.650005e-03 -7.602218e-05
-7.800005e-03 -8.396941e-05
-6.950006e-03 -9.257429e-05
-6.100006e-03 -1.018690e-04
-5.250007e-03 -1.118842e-04
-4.400000e-03 -1.226491e-04
-3.550000e-03 -1.341905e-04
-2.700001e-03 -1.465326e-04
-1.850002e-03 -1.596959e-04
-1.000002e-03 -1.736971e-04
-1.500025e-04 -1.885481e-04
6.999969e-04 -2.042552e-04
1.549996e-03 -2.208187e-04
2.399996e-03 -2.382318e-04
3.249995e-03 -2.564798e-04
4.099995e-03 -2.755395e-04
4.949994e-03 -2.953783e-04
5.799994e-03 -3.159532e-04
6.650001e-03 -3.372106e-04
7.499993e-03 -3.590852e-04
8.350000e-03 -3.814996e-04
9.199992e-03 -4.043635e-04
1.005000e-02 -4.275732e-04
1.089999e-02 -4.510111e-04
1.175000e-02 -4.745459e-04
1.259999e-02 -4.980321e-04
1.345000e-02 -5.213096e-04
1.430000e-02 -5.442041e-04
1.515000e-02 -5.665281e-04
1.600000e-02 -5.880792e-04
1.684999e-02 -6.086436e-04
1.770000e-02 -6.279942e-04
1.854999e-02 -6.458935e-04
1.940000e-02 -6.620942e-04
2.024999e-02 -6.763406e-04
2.110000e-02 -6.883707e-04
2.194999e-02 -6.979178e-04
2.280000e-02 -7.047132e-04
2.364999e-02 -7.084874e-04
2.450000e-02 -7.089745e-04
2.535000e-02 -7.059132e-04
2.620000e-02 -6.990510e-04
2.705000e-02 -6.881465e-04
2.790000e-02 -6.729725e-04
2.875000e-02 -6.533195e-04
2.959999e-02 -6.289990e-04
3.045000e-02 -5.998467e-04
3.129999e-02 -5.657247e-04
3.215000e-02 -5.265271e-04
3.299999e-02 -4.821800e-04
3.385000e-02 -4.326468e-04
3.469999e-02 -3.779294e-04
3.555000e-02 -3.180715e-04
3.639999e-02 -2.531607e-04
3.725000e-02 -1.833295e-04
3.810000e-02 -1.087567e-04
3.895000e-02 -2.966974e-05
3.980000e-02 5.365675e-05
4.065000e-02 1.408999e-04
4.150000e-02 2.316891e-04
4.234999e-02 3.256081e-04
4.320000e-02 4.221960e-04
4.404999e-02 5.209490e-04
4.490000e-02 6.213243e-04
4.574999e-02 7.227429e-04
4.660000e-02 8.245930e-04
4.744999e-02 9.262348e-04
4.830000e-02 1.027006e-03
4.914999e-02 1.126226e-03
5.000000e-02 1.223202e-03
5.085000e-02 1.317235e-03
5.170000e-02 1.407626e-03
5.255000e-02 1.493684e-03
5.339999e-02 1.574728e-03
5.425000e-02 1.650100e-03
5.509999e-02 1.719167e-03
5.595000e-02 1.781330e-03
5.679999e-02 1.836030e-03
5.765000e-02 1.882751e-03
5.849999e-02 1.921031e-03
5.935000e-02 1.950465e-03
6.019999e-02 1.970708e-03
6.105000e-02 1.981482e-03
6.190000e-02 1.982577e-03
6.275000e-02 1.973858e-03
6.360000e-02 1.955263e-03
6.445000e-02 1.926807e-03
6.530000e-02 1.888579e-03
6.614999e-02 1.840750e-03
6.700000e-02 1.783564e-03
6.784999e-02 1.717337e-03
6.870000e-02 1.642461e-03
6.954999e-02 1.559394e-03
7.040000e-02 1.468657e-03
7.124999e-02 1.370834e-03
7.210000e-02 1.266560e-03
7.294999e-02 1.156521e-03
7.380000e-02 1.041442e-03
7.465000e-02 9.220873e-04
7.550000e-02 7.992450e-04
7.635000e-02 6.737263e-04
7.720000e-02 5.463551e-04
7.805000e-02 4.179593e-04
7.889999e-02 2.893672e-04
7.975000e-02 1.613946e-04
8.059999e-02 3.484288e-05
8.145000e-02 -8.951281e-05
8.229999e-02 -2.109267e-04
8.315000e-02 -3.286903e-04
8.399999e-02 -4.421374e-04
8.485000e-02 -5.506501e-04
8.570001e-02 -6.536614e-04
8.655000e-02 -7.506622e-04
8.740000e-02 -8.412010e-04
8.825000e-02 -9.248897e-04
8.910000e-02 -1.001403e-03
8.995000e-02 -1.070481e-03
9.080000e-02 -1.131928e-03
9.164999e-02 -1.185614e-03
9.250000e-02 -1.231473e-03
9.334999e-02 -1.269501e-03
9.420000e-02 -1.299755e-03
9.504999e-02 -1.322349e-03
9.590000e-02 -1.337450e-03
9.674999e-02 -1.345280e-03
9.760000e-02 -1.346102e-03
9.845001e-02 -1.340224e-03
9.930000e-02 -1.327994e-03
1.001500e-01 -1.309788e-03
1.010000e-01 -1.286014e-03
1.018500e-01 -1.257100e-03
1.027000e-01 -1.223494e-03
1.035500e-01 -1.185657e-03
1.044000e-01 -1.144057e-03
1.052500e-01 -1.099168e-03
1.061000e-01 -1.051461e-03
1.069500e-01 -1.001402e-03
1.078000e-01 -9.494508e-04
1.086500e-01 -8.960529e-04
1.095000e-01 -8.416383e-04
1.103500e-01 -7.866191e-04
1.112000e-01 -7.313857e-04
1.120500e-01 -6.763053e-04
1.129000e-01 -6.217203e-04
1.137500e-01 -5.679461e-04
1.146000e-01 -5.152714e-04
1.154500e-01 -4.639559e-04
1.163000e-01 -4.142307e-04
1.171500e-01 -3.662983e-04
1.180000e-01 -3.203328e-04
1.188500e-01 -2.764799e-04
1.197000e-01 -2.348587e-04
1.205500e-01 -1.955614e-04
1.214000e-01 -1.586555e-04
1.222500e-01 -1.241845e-04
1.231000e-01 -9.216961e-05
1.239500e-01 -6.261147e-05
1.248000e-01 -3.549161e-05
1.256500e-01 -1.077400e-05
1.265000e-01 1.159301e-05
1.273500e-01 3.167502e-05
1.282000e-01 4.954972e-05
1.290500e-01 6.530552e-05
1.299000e-01 7.903957e-05
1.307500e-01 9.085639e-05
1.316000e-01 1.008660e-04
1.324500e-01 1.091827e-04
1.333000e-01 1.159236e-04
1.341500e-01 1.212074e-04
1.350000e-01 1.251531e-04
1.358500e-01 1.278789e-04
1.367000e-01 1.295015e-04
1.375500e-01 1.301347e-04
1.384000e-01 1.298895e-04
1.392500e-01 1.288726e-04
1.401000e-01 1.271863e-04
1.409500e-01 1.249279e-04
1.418000e-01 1.221896e-04
1.426500e-01 1.190577e-04
1.435000e-01 1.156129e-04
1.443500e-01 1.119300e-04
1.452000e-01 1.080774e-04
1.460500e-01 1.041179e-04
1.469000e-01 1.001079e-04
1.477500e-01 9.609829e-05
1.486000e-01 9.213386e-05
1.494500e-01 8.825397e-05
1.503000e-01 8.449240e-05
1.511500e-01 8.087798e-05
1.520000e-01 7.743433e-05
1.528500e-01 7.418050e-05
1.537000e-01 7.113122e-05
1.545500e-01 6.829690e-05
1.554000e-01 6.568435e-05
1.562500e-01 6.329684e-05
1.571000e-01 6.113434e-05
1.579500e-01 5.919420e-05
1.588000e-01 5.747105e-05
1.596500e-01 5.595745e-05
1.605000e-01 5.464382e-05
1.613500e-01 5.351905e-05
1.622000e-01 5.257043e-05
1.630500e-01 5.178423e-05
1.639000e-01 5.114562e-05
1.647500e-01 5.063912e-05
1.656000e-01 5.024875e-05
1.664500e-01 4.995823e-05
1.673000e-01 4.975127e-05
1.681500e-01 4.961170e-05
1.690000e-01 4.952366e-05
1.698500e-01 4.947184e-05
1.707000e-01 4.944151e-05
1.715500e-01 4.941878e-05
1.724000e-01 4.939065e-05
1.732500e-01 4.934499e-05
1.741000e-01 4.927082e-05
1.749500e-01 4.915815e-05
1.758000e-01 4.899818e-05
1.766500e-01 4.878323e-05
1.775000e-01 4.850680e-05
1.783500e-01 4.816353e-05
1.792000e-01 4.774928e-05
1.800500e-01 4.726092e-05
1.809000e-01 4.669654e-05
1.817500e-01 4.605517e-05
1.826000e-01 4.533690e-05
1.834500e-01 4.454271e-05
1.843000e-01 4.367447e-05
1.851500e-01 4.273475e-05
1.860000e-01 4.172689e-05
1.868500e-01 4.065481e-05
1.877000e-01 3.952287e-05
1.885500e-01 3.833595e-05
1.894000e-01 3.709911e-05
1.902500e-01 3.581769e-05
1.911000e-01 3.449711e-05
1.919500e-01 3.314281e-05
1.928000e-01 3.176011e-05
1.936500e-01 3.035425e-05
1.945000e-01 2.893023e-05
1.953500e-01 2.749284e-05
1.962000e-01 2.604655e-05
1.970500e-01 2.459560e-05
1.979000e-01 2.314390e-05
1.987500e-01 2.169507e-05
1.996000e-01 2.025244e-05
2.004500e-01 1.881908e-05
2.013000e-01 1.739779e-05
2.021500e-01 1.599112e-05
2.030000e-01 1.460139e-05
2.038500e-01 1.323071e-05
2.047000e-01 1.188102e-05
2.055500e-01 1.055411e-05
2.064000e-01 9.251652e-06
2.072500e-01 7.975274e-06
2.081000e-01 6.726547e-06
2.089500e-01 5.507037e-06
2.098000e-01 4.318370e-06
2.106500e-01 3.162234e-06
2.115000e-01 2.040426e-06
2.123500e-01 9.548353e-07
2.132000e-01 -9.251155e-08
2.140500e-01 -1.099477e-06
2.149000e-01 -2.063809e-06
2.157500e-01 -2.983180e-06
2.166000e-01 -3.855175e-06
2.174500e-01 -4.677367e-06
2.183000e-01 -5.447333e-06
2.191500e-01 -6.162717e-06
2.200000e-01 -6.821248e-06
2.208500e-01 -7.420819e-06
2.217000e-01 -7.959510e-06
2.225500e-01 -8.435644e-06
2.234000e-01 -8.847806e-06
2.242500e-01 -9.194891e-06
2.251000e-01 -9.476109e-06
2.259500e-01 -9.691009e-06
2.268000e-01 -9.839487e-06
2.276500e-01 -9.921785e-06
2.285000e-01 -9.938507e-06
2.293500e-01 -9.890596e-06
2.302000e-01 -9.779365e-06
2.310500e-01 -9.606457e-06
2.319000e-01 -9.373869e-06
2.327500e-01 -9.083920e-06
2.336000e-01 -8.739239e-06
2.344500e-01 -8.342745e-06
2.353000e-01 -7.897601e-06
2.361500e-01 -7.407185e-06
2.370000e-01 -6.875037e-06
2.378500e-01 -6.304811e-06
2.387000e-01 -5.700226e-06
2.395500e-01 -5.065016e-06
2.404000e-01 -4.402913e-06
2.412500e-01 -3.717569e-06
2.421000e-01 -3.012587e-06
2.429500e-01 -2.291465e-06
2.438000e-01 -1.557619e-06
2.446500e-01 -8.143519e-07
2.455000e-01 -6.488876e-08
2.463500e-01 6.876452e-07
2.472000e-01 1.440201e-06
2.480500e-01 2.189803e-06
2.489000e-01 2.933525e-06
2.497500e-01 3.668509e-06
2.506000e-01 4.391907e-06
2.514500e-01 5.100908e-06
2.523000e-01 5.792700e-06
2.531500e-01 6.464475e-06
2.540000e-01 7.113421e-06
2.548500e-01 7.736700e-06
2.557000e-01 8.331479e-06
2.565500e-01 8.894912e-06
2.574000e-01 9.424179e-06
2.582500e-01 9.916468e-06
2.591000e-01 1.036900e-05
2.599500e-01 1.077906e-05
2.608000e-01 1.114399e-05
2.616500e-01 1.146124e-05
2.625000e-01 1.172837e-05
2.633500e-01 1.194310e-05
2.642000e-01 1.210335e-05
2.650500e-01 1.220728e-05
2.659000e-01 1.225335e-05
2.667500e-01 1.224037e-05
2.676000e-01 1.216754e-05
2.684500e-01 1.203455e-05
2.693000e-01 1.184151e-05
2.701500e-01 1.158908e-05
2.710000e-01 1.127841e-05
2.718500e-01 1.091114e-05
2.727000e-01 1.048941e-05
2.735500e-01 1.001583e-05
2.744000e-01 9.493448e-06
2.752500e-01 8.925712e-06
2.761000e-01 8.316487e-06
2.769500e-01 7.669999e-06
2.778000e-01 6.990815e-06
2.786500e-01 6.283813e-06
2.795000e-01 5.554126e-06
2.803500e-01 4.807112e-06
2.812000e-01 4.048272e-06
2.820500e-01 3.283188e-06
2.829000e-01 2.517446e-06
2.837500e-01 1.756558e-06
2.846000e-01 1.005910e-06
2.854500e-01 2.706897e-07
2.863000e-01 -4.441589e-07
2.871500e-01 -1.133953e-06
2.880000e-01 -1.794313e-06
2.888500e-01 -2.421174e-06
2.897000e-01 -3.010795e-06
2.905500e-01 -3.559764e-06
2.914000e-01 -4.065024e-06
2.922500e-01 -4.523868e-06
2.931000e-01 -4.933956e-06
2.939500e-01 -5.293317e-06
2.948000e-01 -5.600353e-06
2.956500e-01 -5.853820e-06
2.965000e-01 -6.052818e-06
2.973500e-01 -6.196762e-06
2.982000e-01 -6.285375e-06
2.990500e-01 -6.318633e-06
2.999000e-01 -6.296757e-06
3.007500e-01 -6.220180e-06
3.016000e-01 -6.089541e-06
3.024500e-01 -5.905670e-06
3.033000e-01 -5.669579e-06
3.041500e-01 -5.382467e-06
3.050000e-01 -5.045723e-06
3.058500e-01 -4.660925e-06
3.067000e-01 -4.229852e-06
3.075500e-01 -3.754498e-06
3.084000e-01 -3.237073e-06
3.092500e-01 -2.680027e-06
3.101000e-01 -2.086063e-06
3.109500e-01 -1.458154e-06
3.118000e-01 -7.995518e-07
3.126500e-01 -1.138044e-07
3.135000e-01 5.952549e-07
3.143500e-01 1.323499e-06
3.152000e-01 2.066531e-06
3.160500e-01 2.819705e-06
3.169000e-01 3.578142e-06
3.177500e-01 4.336770e-06
3.186000e-01 5.090346e-06
3.194500e-01 5.833475e-06
3.203000e-01 6.560646e-06
3.211500e-01 7.266261e-06
3.220000e-01 7.944672e-06
3.228500e-01 8.590206e-06
3.237000e-01 9.197246e-06
3.245500e-01 9.760274e-06
3.254000e-01 1.027394e-05
3.262500e-01 1.073316e-05
3.271000e-01 1.113317e-05
3.279500e-01 1.146962e-05
3.288000e-01 1.173861e-05
3.296500e-01 1.193676e-05
3.305000e-01 1.206127e-05
3.313500e-01 1.210990e-05
3.322000e-01 1.208103e-05
3.330500e-01 1.197365e-05
3.339000e-01 1.178736e-05
3.347500e-01 1.152243e-05
3.356000e-01 1.117973e-05
3.364500e-01 1.076078e-05
3.373000e-01 1.026770e-05
3.381500e-01 9.703244e-06
3.390000e-01 9.070694e-06
3.398500e-01 8.373889e-06
3.407000e-01 7.617105e-06
3.415500e-01 6.805042e-06
3.424000e-01 5.942750e-06
3.432500e-01 5.035549e-06
3.441000e-01 4.089002e-06
3.449500e-01 3.108853e-06
3.458000e-01 2.100975e-06
3.466500e-01 1.071326e-06
3.475000e-01 2.591124e-08
3.483500e-01 -1.029282e-06
3.492000e-01 -2.088340e-06
3.500500e-01 -3.145475e-06
3.509000e-01 -4.195091e-06
3.517500e-01 -5.231829e-06
3.526000e-01 -6.250620e-06
3.534500e-01 -7.246695e-06
3.543000e-01 -8.215617e-06
3.551500e-01 -9.153265e-06
3.560000e-01 -1.005581e-05
3.568500e-01 -1.091973e-05
3.577000e-01 -1.174175e-05
3.585500e-01 -1.251886e-05
3.594000e-01 -1.324830e-05
3.602500e-01 -1.392756e-05
3.611000e-01 -1.455439e-05
3.619500e-01 -1.512681e-05
3.628000e-01 -1.564313e-05
3.636500e-01 -1.610194e-05
3.645000e-01 -1.650211e-05
3.653500e-01 -1.684278e-05
3.662000e-01 -1.712332e-05
3.670500e-01 -1.734339e-05
3.679000e-01 -1.750279e-05
3.687500e-01 -1.760157e-05
3.696000e-01 -1.763998e-05
3.704500e-01 -1.761845e-05
3.713000e-01 -1.753765e-05
3.721500e-01 -1.739844e-05
3.730000e-01 -1.720194e-05
3.738500e-01 -1.694946e-05
3.747000e-01 -1.664255e-05
3.755500e-01 -1.628302e-05
3.764000e-01 -1.587286e-05
3.772500e-01 -1.541428e-05
3.781000e-01 -1.490973e-05
3.789500e-01 -1.436183e-05
3.798000e-01 -1.377343e-05
3.806500e-01 -1.314758e-05
3.815000e-01 -1.248749e-05
3.823500e-01 -1.179659e-05
3.832000e-01 -1.107840e-05
3.840500e-01 -1.033658e-05
3.849000e-01 -9.574834e-06
3.857500e-01 -8.796897e-06
3.866000e-01 -8.006484e-06
3.874500e-01 -7.207268e-06
3.883000e-01 -6.402847e-06
3.891500e-01 -5.596743e-06
