-1.200000e-01 0.000000e+00
-1.191500e-01 -3.633251e-13
-1.183000e-01 -9.729655e-13
-1.174500e-01 -1.600377e-12
-1.166000e-01 -2.051073e-12
-1.157500e-01 -2.335380e-12
-1.149000e-01 -2.794060e-12
-1.140500e-01 -4.113502e-12
-1.132000e-01 -7.194078e-12
-1.123500e-01 -1.288293e-11
-1.115000e-01 -2.163698e-11
-1.106500e-01 -3.322654e-11
-1.098000e-01 -4.660757e-11
-1.089500e-01 -6.006877e-11
-1.081000e-01 -7.169482e-11
-1.072500e-01 -8.008988e-11
-1.064000e-01 -8.519865e-11
-1.055500e-01 -8.897775e-11
-1.047000e-01 -9.564271e-11
-1.038500e-01 -1.112665e-10
-1.030000e-01 -1.426453e-10
-1.021500e-01 -1.955468e-10
-1.013000e-01 -2.726848e-10
-1.004500e-01 -3.719436e-10
-9.960000e-02 -4.854547e-10
-9.875000e-02 -6.000538e-10
-9.790000e-02 -6.994010e-10
-9.705000e-02 -7.676690e-10
-9.620000e-02 -7.942584e-10
-9.535000e-02 -7.786005e-10
-9.450001e-02 -7.338736e-10
-9.365001e-02 -6.884696e-10
-9.280001e-02 -6.843578e-10
-9.195001e-02 -7.720766e-10
-9.110001e-02 -1.002815e-09
-9.025000e-02 -1.418792e-09
-8.940001e-02 -2.043708e-09
-8.855000e-02 -2.875242e-09
-8.770001e-02 -3.881353e-09
-8.685000e-02 -5.001474e-09
-8.600000e-02 -6.152690e-09
-8.515000e-02 -7.239871e-09
-8.430000e-02 -8.167763e-09
-8.345000e-02 -8.852430e-09
-8.260000e-02 -9.229413e-09
-8.175001e-02 -9.256581e-09
-8.090001e-02 -8.910691e-09
-8.005001e-02 -8.178116e-09
-7.920000e-02 -7.041641e-09
-7.835001e-02 -5.466106e-09
-7.750000e-02 -3.386082e-09
-7.665001e-02 -6.986554e-10
-7.580000e-02 2.737236e-09
-7.495001e-02 7.094655e-09
-7.410000e-02 1.256717e-08
-7.325000e-02 1.935576e-08
-7.240000e-02 2.765750e-08
-7.155000e-02 3.766055e-08
-7.070000e-02 4.954851e-08
-6.985001e-02 6.351557e-08
-6.900001e-02 7.979152e-08
-6.815000e-02 9.867447e-08
-6.730001e-02 1.205665e-07
-6.645000e-02 1.460075e-07
-6.560001e-02 1.757026e-07
-6.475000e-02 2.105400e-07
-6.390001e-02 2.515983e-07
-6.305000e-02 3.001443e-07
-6.220000e-02 3.576241e-07
-6.135000e-02 4.256549e-07
-6.050000e-02 5.060189e-07
-5.965000e-02 6.006662e-07
-5.880000e-02 7.117323e-07
-5.795000e-02 8.415641e-07
-5.710001e-02 9.927604e-07
-5.625001e-02 1.168220e-06
-5.540001e-02 1.371191e-06
-5.455001e-02 1.605330e-06
-5.370001e-02 1.874737e-06
-5.285000e-02 2.184009e-06
-5.200000e-02 2.538265e-06
-5.115000e-02 2.943183e-06
-5.030000e-02 3.405020e-06
-4.945000e-02 3.930638e-06
-4.860000e-02 4.527546e-06
-4.775000e-02 5.203922e-06
-4.690000e-02 5.968662e-06
-4.605000e-02 6.831424e-06
-4.520001e-02 7.802671e-06
-4.435001e-02 8.893719e-06
-4.350001e-02 1.011678e-05
-4.265001e-02 1.148497e-05
-4.180001e-02 1.301236e-05
-4.095000e-02 1.471393e-05
-4.010000e-02 1.660559e-05
-3.925000e-02 1.870416e-05
-3.840000e-02 2.102730e-05
-3.755000e-02 2.359349e-05
-3.670000e-02 2.642192e-05
-3.585000e-02 2.953246e-05
-3.500000e-02 3.294559e-05
-3.415000e-02 3.668221e-05
-3.330000e-02 4.076357e-05
-3.245001e-02 4.521111e-05
-3.160001e-02 5.004629e-05
-3.075001e-02 5.529038e-05
-2.990001e-02 6.096420e-05
-2.905000e-02 6.708790e-05
-2.820000e-02 7.368059e-05
-2.735000e-02 8.076017e-05
-2.650000e-02 8.834291e-05
-2.565000e-02 9.644301e-05
-2.480000e-02 1.050724e-04
-2.395000e-02 1.142402e-04
-2.310000e-02 1.239523e-04
-2.225000e-02 1.342110e-04
-2.140000e-02 1.450145e-04
-2.055001e-02 1.563564e-04
-1.970001e-02 1.682253e-04
-1.885001e-02 1.806039e-04
-1.800001e-02 1.934692e-04
-1.715000e-02 2.067913e-04
-1.630000e-02 2.205334e-04
-1.545000e-02 2.346512e-04
-1.460000e-02 2.490924e-04
-1.375000e-02 2.637968e-04
-1.290000e-02 2.786957e-04
-1.205000e-02 2.937117e-04
-1.120000e-02 3.087588e-04
-1.035000e-02 3.237421e-04
-9.500004e-03 3.385583e-04
-8.650005e-03 3.530949e-04
-7.800005e-03 3.672313e-04
-6.950006e-03 3.808391e-04
-6.100006e-03 3.937816e-04
-5.250007e-03 4.059153e-04
-4.400000e-03 4.170904e-04
-3.550000e-03 4.271514e-04
-2.700001e-03 4.359382e-04
-1.850002e-03 4.432872e-04
-1.000002e-03 4.490330e-04
-1.500025e-04 4.530093e-04
6.999969e-04 4.550506e-04
1.549996e-03 4.549943e-04
2.399996e-03 4.526818e-04
3.249995e-03 4.479610e-04
4.099995e-03 4.406871e-04
4.949994e-03 4.307258e-04
5.799994e-03 4.179539e-04
6.650001e-03 4.022628e-04
7.499993e-03 3.835589e-04
8.350000e-03 3.617661e-04
9.199992e-03 3.368282e-04
1.005000e-02 3.087097e-04
1.089999e-02 2.773991e-04
1.175000e-02 2.429079e-04
1.259999e-02 2.052751e-04
1.345000e-02 1.645654e-04
1.430000e-02 1.208720e-04
1.515000e-02 7.431701e-05
1.600000e-02 2.505131e-05
1.684999e-02 -2.674515e-05
1.770000e-02 -8.086361e-05
1.854999e-02 -1.370666e-04
1.940000e-02 -1.950898e-04
2.024999e-02 -2.546421e-04
2.110000e-02 -3.154088e-04
2.194999e-02 -3.770512e-04
2.280000e-02 -4.392102e-04
2.364999e-02 -5.015098e-04
2.450000e-02 -5.635571e-04
2.535000e-02 -6.249484e-04
2.620000e-02 -6.852694e-04
2.705000e-02 -7.441015e-04
2.790000e-02 -8.010243e-04
2.875000e-02 -8.556187e-04
2.959999e-02 -9.074730e-04
3.045000e-02 -9.561842e-04
3.129999e-02 -1.001364e-03
3.215000e-02 -1.042643e-03
3.299999e-02 -1.079672e-03
3.385000e-02 -1.112130e-03
3.469999e-02 -1.139722e-03
3.555000e-02 -1.162188e-03
3.639999e-02 -1.179303e-03
3.725000e-02 -1.190879e-03
3.810000e-02 -1.196769e-03
3.895000e-02 -1.196871e-03
3.980000e-02 -1.191122e-03
4.065000e-02 -1.179508e-03
4.150000e-02 -1.162059e-03
4.234999e-02 -1.138850e-03
4.320000e-02 -1.110003e-03
4.404999e-02 -1.075683e-03
4.490000e-02 -1.036098e-03
4.574999e-02 -9.914992e-04
4.660000e-02 -9.421741e-04
4.744999e-02 -8.884476e-04
4.830000e-02 -8.306780e-04
4.914999e-02 -7.692541e-04
5.000000e-02 -7.045903e-04
5.085000e-02 -6.371236e-04
5.170000e-02 -5.673087e-04
5.255000e-02 -4.956158e-04
5.339999e-02 -4.225223e-04
5.425000e-02 -3.485114e-04
5.509999e-02 -2.740668e-04
5.595000e-02 -1.996673e-04
5.679999e-02 -1.257841e-04
5.765000e-02 -5.287465e-05
5.849999e-02 1.862005e-05
5.935000e-02 8.827830e-05
6.019999e-02 1.557034e-04
6.105000e-02 2.205252e-04
6.190000e-02 2.824036e-04
6.275000e-02 3.410290e-04
6.360000e-02 3.961277e-04
6.445000e-02 4.474610e-04
6.530000e-02 4.948264e-04
6.614999e-02 5.380592e-04
6.700000e-02 5.770332e-04
6.784999e-02 6.116587e-04
6.870000e-02 6.418843e-04
6.954999e-02 6.676950e-04
7.040000e-02 6.891104e-04
7.124999e-02 7.061839e-04
7.210000e-02 7.190005e-04
7.294999e-02 7.276750e-04
7.380000e-02 7.323492e-04
7.465000e-02 7.331895e-04
7.550000e-02 7.303845e-04
7.635000e-02 7.241424e-04
7.720000e-02 7.146866e-04
7.805000e-02 7.022546e-04
7.889999e-02 6.870949e-04
7.975000e-02 6.694624e-04
8.059999e-02 6.496174e-04
8.145000e-02 6.278221e-04
8.229999e-02 6.043387e-04
8.315000e-02 5.794256e-04
8.399999e-02 5.533369e-04
8.485000e-02 5.263194e-04
8.570001e-02 4.986104e-04
8.655000e-02 4.704367e-04
8.740000e-02 4.420133e-04
8.825000e-02 4.135416e-04
8.910000e-02 3.852092e-04
8.995000e-02 3.571879e-04
9.080000e-02 3.296343e-04
9.164999e-02 3.026891e-04
9.250000e-02 2.764770e-04
9.334999e-02 2.511066e-04
9.420000e-02 2.266709e-04
9.504999e-02 2.032476e-04
9.590000e-02 1.808996e-04
9.674999e-02 1.596757e-04
9.760000e-02 1.396114e-04
9.845001e-02 1.207299e-04
9.930000e-02 1.030426e-04
1.001500e-01 8.655030e-05
1.010000e-01 7.124421e-05
1.018500e-01 5.710662e-05
1.027000e-01 4.411226e-05
1.035500e-01 3.222910e-05
1.044000e-01 2.141909e-05
1.052500e-01 1.163938e-05
1.061000e-01 2.843150e-06
1.069500e-01 -5.019817e-06
1.078000e-01 -1.200172e-05
1.086500e-01 -1.815674e-05
1.095000e-01 -2.353977e-05
1.103500e-01 -2.820599e-05
1.112000e-01 -3.221044e-05
1.120500e-01 -3.560724e-05
1.129000e-01 -3.844924e-05
1.137500e-01 -4.078802e-05
1.146000e-01 -4.267305e-05
1.154500e-01 -4.415213e-05
1.163000e-01 -4.527056e-05
1.171500e-01 -4.607141e-05
1.180000e-01 -4.659503e-05
1.188500e-01 -4.687939e-05
1.197000e-01 -4.695945e-05
1.205500e-01 -4.686758e-05
1.214000e-01 -4.663329e-05
1.222500e-01 -4.628322e-05
1.231000e-01 -4.584123e-05
1.239500e-01 -4.532838e-05
1.248000e-01 -4.476315e-05
1.256500e-01 -4.416138e-05
1.265000e-01 -4.353643e-05
1.273500e-01 -4.289953e-05
1.282000e-01 -4.225954e-05
1.290500e-01 -4.162321e-05
1.299000e-01 -4.099542e-05
1.307500e-01 -4.037922e-05
1.316000e-01 -3.977595e-05
1.324500e-01 -3.918535e-05
1.333000e-01 -3.860572e-05
1.341500e-01 -3.803430e-05
1.350000e-01 -3.746720e-05
1.358500e-01 -3.689975e-05
1.367000e-01 -3.632665e-05
1.375500e-01 -3.574229e-05
1.384000e-01 -3.514075e-05
1.392500e-01 -3.451608e-05
1.401000e-01 -3.386243e-05
1.409500e-01 -3.317428e-05
1.418000e-01 -3.244636e-05
1.426500e-01 -3.167403e-05
1.435000e-01 -3.085314e-05
1.443500e-01 -2.998037e-05
1.452000e-01 -2.905324e-05
1.460500e-01 -2.807016e-05
1.469000e-01 -2.703064e-05
1.477500e-01 -2.593526e-05
1.486000e-01 -2.478561e-05
1.494500e-01 -2.358459e-05
1.503000e-01 -2.233601e-05
1.511500e-01 -2.104471e-05
1.520000e-01 -1.971643e-05
1.528500e-01 -1.835774e-05
1.537000e-01 -1.697584e-05
1.545500e-01 -1.557854e-05
1.554000e-01 -1.417402e-05
1.562500e-01 -1.277086e-05
1.571000e-01 -1.137782e-05
1.579500e-01 -1.000374e-05
1.588000e-01 -8.657477e-06
1.596500e-01 -7.347697e-06
1.605000e-01 -6.082844e-06
1.613500e-01 -4.870979e-06
1.622000e-01 -3.719633e-06
1.630500e-01 -2.635783e-06
1.639000e-01 -1.625734e-06
1.647500e-01 -6.950077e-07
1.656000e-01 1.516443e-07
1.664500e-01 9.102932e-07
1.673000e-01 1.577858e-06
1.681500e-01 2.152090e-06
1.690000e-01 2.631593e-06
1.698500e-01 3.015741e-06
1.707000e-01 3.304675e-06
1.715500e-01 3.499286e-06
1.724000e-01 3.601151e-06
1.732500e-01 3.612447e-06
1.741000e-01 3.535886e-06
1.749500e-01 3.374710e-06
1.758000e-01 3.132528e-06
1.766500e-01 2.813331e-06
1.775000e-01 2.421394e-06
1.783500e-01 1.961226e-06
1.792000e-01 1.437512e-06
1.800500e-01 8.550986e-07
1.809000e-01 2.189830e-07
1.817500e-01 -4.657509e-07
1.826000e-01 -1.193947e-06
1.834500e-01 -1.960347e-06
1.843000e-01 -2.759687e-06
1.851500e-01 -3.586621e-06
1.860000e-01 -4.435825e-06
1.868500e-01 -5.301946e-06
1.877000e-01 -6.179640e-06
1.885500e-01 -7.063597e-06
1.894000e-01 -7.948516e-06
1.902500e-01 -8.829117e-06
1.911000e-01 -9.700153e-06
1.919500e-01 -1.055642e-05
1.928000e-01 -1.139280e-05
1.936500e-01 -1.220423e-05
1.945000e-01 -1.298574e-05
1.953500e-01 -1.373251e-05
1.962000e-01 -1.443986e-05
1.970500e-01 -1.510328e-05
1.979000e-01 -1.571851e-05
1.987500e-01 -1.628149e-05
1.996000e-01 -1.678848e-05
2.004500e-01 -1.723604e-05
2.013000e-01 -1.762113e-05
2.021500e-01 -1.794106e-05
2.030000e-01 -1.819362e-05
2.038500e-01 -1.837705e-05
2.047000e-01 -1.849012e-05
2.055500e-01 -1.853211e-05
2.064000e-01 -1.850278e-05
2.072500e-01 -1.840244e-05
2.081000e-01 -1.823184e-05
2.089500e-01 -1.799221e-05
2.098000e-01 -1.768514e-05
2.106500e-01 -1.731262e-05
2.115000e-01 -1.687697e-05
2.123500e-01 -1.638080e-05
2.132000e-01 -1.582700e-05
2.140500e-01 -1.521866e-05
2.149000e-01 -1.455911e-05
2.157500e-01 -1.385184e-05
2.166000e-01 -1.310043e-05
2.174500e-01 -1.230857e-05
2.183000e-01 -1.147996e-05
2.191500e-01 -1.061829e-05
2.200000e-01 -9.727189e-06
2.208500e-01 -8.810221e-06
2.217000e-01 -7.870849e-06
2.225500e-01 -6.912443e-06
2.234000e-01 -5.938292e-06
2.242500e-01 -4.951618e-06
2.251000e-01 -3.955598e-06
2.259500e-01 -2.953381e-06
2.268000e-01 -1.948097e-06
2.276500e-01 -9.428739e-07
2.285000e-01 5.914955e-08
2.293500e-01 1.054826e-06
2.302000e-01 2.040976e-06
2.310500e-01 3.014376e-06
2.319000e-01 3.971731e-06
2.327500e-01 4.909652e-06
2.336000e-01 5.824632e-06
2.344500e-01 6.713027e-06
2.353000e-01 7.571063e-06
2.361500e-01 8.394834e-06
2.370000e-01 9.180354e-06
2.378500e-01 9.923585e-06
2.387000e-01 1.062051e-05
2.395500e-01 1.126719e-05
2.404000e-01 1.185984e-05
2.412500e-01 1.239486e-05
2.421000e-01 1.286894e-05
2.429500e-01 1.327903e-05
2.438000e-01 1.362244e-05
2.446500e-01 1.389685e-05
2.455000e-01 1.410035e-05
2.463500e-01 1.423146e-05
2.472000e-01 1.428922e-05
2.480500e-01 1.427320e-05
2.489000e-01 1.418354e-05
2.497500e-01 1.402101e-05
2.506000e-01 1.378699e-05
2.514500e-01 1.348351e-05
2.523000e-01 1.311320e-05
2.531500e-01 1.267926e-05
2.540000e-01 1.218539e-05
2.548500e-01 1.163578e-05
2.557000e-01 1.103496e-05
2.565500e-01 1.038781e-05
2.574000e-01 9.699454e-06
2.582500e-01 8.975230e-06
2.591000e-01 8.220606e-06
2.599500e-01 7.441127e-06
2.608000e-01 6.642365e-06
2.616500e-01 5.829821e-06
2.625000e-01 5.008867e-06
2.633500e-01 4.184657e-06
2.642000e-01 3.362060e-06
2.650500e-01 2.545584e-06
2.659000e-01 1.739342e-06
2.667500e-01 9.470161e-07
2.676000e-01 1.718497e-07
2.684500e-01 -5.833514e-07
2.693000e-01 -1.316190e-06
2.701500e-01 -2.024651e-06
2.710000e-01 -2.707066e-06
2.718500e-01 -3.362095e-06
2.727000e-01 -3.988689e-06
2.735500e-01 -4.586071e-06
2.744000e-01 -5.153719e-06
2.752500e-01 -5.691334e-06
2.761000e-01 -6.198813e-06
2.769500e-01 -6.676207e-06
2.778000e-01 -7.123689e-06
2.786500e-01 -7.541493e-06
2.795000e-01 -7.929868e-06
2.803500e-01 -8.289039e-06
2.812000e-01 -8.619158e-06
2.820500e-01 -8.920282e-06
2.829000e-01 -9.192358e-06
2.837500e-01 -9.435222e-06
2.846000e-01 -9.648617e-06
2.854500e-01 -9.832193e-06
2.863000e-01 -9.985561e-06
2.871500e-01 -1.010828e-05
2.880000e-01 -1.019992e-05
2.888500e-01 -1.026010e-05
2.897000e-01 -1.028848e-05
2.905500e-01 -1.028481e-05
2.914000e-01 -1.024896e-05
2.922500e-01 -1.018095e-05
2.931000e-01 -1.008094e-05
2.939500e-01 -9.949277e-06
2.948000e-01 -9.786496e-06
2.956500e-01 -9.593314e-06
2.965000e-01 -9.370642e-06
2.973500e-01 -9.119583e-06
2.982000e-01 -8.841425e-06
2.990500e-01 -8.537637e-06
2.999000e-01 -8.209852e-06
3.007500e-01 -7.859866e-06
3.016000e-01 -7.489619e-06
3.024500e-01 -7.101174e-06
3.033000e-01 -6.696692e-06
3.041500e-01 -6.278387e-06
3.050000e-01 -5.848513e-06
3.058500e-01 -5.409284e-06
3.067000e-01 -4.962865e-06
3.075500e-01 -4.511320e-06
3.084000e-01 -4.056594e-06
3.092500e-01 -3.600485e-06
3.101000e-01 -3.144649e-06
3.109500e-01 -2.690593e-06
3.118000e-01 -2.239687e-06
3.126500e-01 -1.793169e-06
3.135000e-01 -1.352147e-06
3.143500e-01 -9.176031e-07
3.152000e-01 -4.903915e-07
3.160500e-01 -7.124423e-08
3.169000e-01 3.392395e-07
3.177500e-01 7.405733e-07
3.186000e-01 1.132366e-06
3.194500e-01 1.514280e-06
3.203000e-01 1.885999e-06
3.211500e-01 2.247173e-06
3.220000e-01 2.597384e-06
3.228500e-01 2.936101e-06
3.237000e-01 3.262662e-06
3.245500e-01 3.576277e-06
3.254000e-01 3.876054e-06
3.262500e-01 4.160996e-06
3.271000e-01 4.430062e-06
3.279500e-01 4.682177e-06
3.288000e-01 4.916273e-06
3.296500e-01 5.131284e-06
3.305000e-01 5.326149e-06
3.313500e-01 5.499820e-06
3.322000e-01 5.651233e-06
3.330500e-01 5.779323e-06
3.339000e-01 5.883033e-06
3.347500e-01 5.961356e-06
3.356000e-01 6.013362e-06
3.364500e-01 6.038268e-06
3.373000e-01 6.035484e-06
3.381500e-01 6.004696e-06
3.390000e-01 5.945872e-06
3.398500e-01 5.859303e-06
3.407000e-01 5.745590e-06
3.415500e-01 5.605637e-06
3.424000e-01 5.440622e-06
3.432500e-01 5.251938e-06
3.441000e-01 5.041188e-06
3.449500e-01 4.810140e-06
3.458000e-01 4.560724e-06
3.466500e-01 4.295001e-06
3.475000e-01 4.015191e-06
3.483500e-01 3.723648e-06
3.492000e-01 3.422854e-06
3.500500e-01 3.115399e-06
3.509000e-01 2.803950e-06
3.517500e-01 2.491205e-06
3.526000e-01 2.179838e-06
3.534500e-01 1.872459e-06
3.543000e-01 1.571563e-06
3.551500e-01 1.279495e-06
3.560000e-01 9.984290e-07
3.568500e-01 7.303519e-07
3.577000e-01 4.770681e-07
3.585500e-01 2.401892e-07
3.594000e-01 2.115547e-08
3.602500e-01 -1.787628e-07
3.611000e-01 -3.584677e-07
3.619500e-01 -5.170264e-07
3.628000e-01 -6.536735e-07
3.636500e-01 -7.678068e-07
3.645000e-01 -8.589885e-07
3.653500e-01 -9.269239e-07
3.662000e-01 -9.714704e-07
3.670500e-01 -9.925941e-07
3.679000e-01 -9.903780e-07
3.687500e-01 -9.649764e-07
3.696000e-01 -9.166195e-07
3.704500e-01 -8.455825e-07
3.713000e-01 -7.521722e-07
3.721500e-01 -6.367217e-07
3.730000e-01 -4.995765e-07
3.738500e-01 -3.410894e-07
3.747000e-01 -1.616116e-07
3.755500e-01 3.850235e-08
3.764000e-01 2.588886e-07
3.772500e-01 4.991758e-07
3.781000e-01 7.589580e-07
3.789500e-01 1.037787e-06
3.798000e-01 1.335152e-06
3.806500e-01 1.650459e-06
3.815000e-01 1.983021e-06
3.823500e-01 2.332040e-06
3.832000e-01 2.696614e-06
3.840500e-01 3.075723e-06
3.849000e-01 3.468238e-06
3.857500e-01 3.872911e-06
3.866000e-01 4.288378e-06
3.874500e-01 4.713139e-06
3.883000e-01 5.145549e-06
3.891500e-01 5.583795e-06
