-1.200000e-01 0.000000e+00
-1.191500e-01 0.000000e+00
-1.183000e-01 0.000000e+00
-1.174500e-01 0.000000e+00
-1.166000e-01 1.987363e-20
-1.157500e-01 2.487802e-19
-1.149000e-01 1.531076e-18
-1.140500e-01 6.281198e-18
-1.132000e-01 1.936919e-17
-1.123500e-01 4.757376e-17
-1.115000e-01 9.538509e-17
-1.106500e-01 1.552190e-16
-1.098000e-01 1.924562e-16
-1.089500e-01 1.304277e-16
-1.081000e-01 -1.536050e-16
-1.072500e-01 -8.060918e-16
-1.064000e-01 -1.934301e-15
-1.055500e-01 -3.499156e-15
-1.047000e-01 -5.180802e-15
-1.038500e-01 -6.261733e-15
-1.030000e-01 -5.598342e-15
-1.021500e-01 -1.763070e-15
-1.013000e-01 6.577931e-15
-1.004500e-01 2.004235e-14
-9.960000e-02 3.774716e-14
-9.875000e-02 5.655777e-14
-9.790000e-02 7.066845e-14
-9.705000e-02 7.185961e-14
-9.620000e-02 5.072972e-14
-9.535000e-02 -9.717854e-16
-9.450001e-02 -8.707981e-14
-9.365001e-02 -2.033604e-13
-9.280001e-02 -3.343845e-13
-9.195001e-02 -4.521003e-13
-9.110001e-02 -5.172882e-13
-9.025000e-02 -4.847708e-13
-8.940001e-02 -3.125630e-13
-8.855000e-02 2.583792e-14
-8.770001e-02 5.279495e-13
-8.685000e-02 1.150551e-12
-8.600000e-02 1.803239e-12
-8.515000e-02 2.350805e-12
-8.430000e-02 2.626966e-12
-8.345000e-02 2.460144e-12
-8.260000e-02 1.709393e-12
-8.175001e-02 3.057104e-13
-8.090001e-02 -1.708670e-12
-8.005001e-02 -4.152086e-12
-7.920000e-02 -6.695566e-12
-7.835001e-02 -8.882658e-12
-7.750000e-02 -1.018056e-11
-7.665001e-02 -1.006064e-11
-7.580000e-02 -8.099958e-12
-7.495001e-02 -4.089530e-12
-7.410000e-02 1.870024e-12
-7.325000e-02 9.306124e-12
-7.240000e-02 1.736444e-11
-7.155000e-02 2.486499e-11
-7.070000e-02 3.042792e-11
-6.985001e-02 3.266120e-11
-6.900001e-02 3.038949e-11
-6.815000e-02 2.289286e-11
-6.730001e-02 1.011663e-11
-6.645000e-02 -7.187955e-12
-6.560001e-02 -2.742678e-11
-6.475000e-02 -4.825313e-11
-6.390001e-02 -6.678988e-11
-6.305000e-02 -7.996856e-11
-6.220000e-02 -8.494859e-11
-6.135000e-02 -7.956329e-11
-6.050000e-02 -6.272766e-11
-5.965000e-02 -3.474317e-11
-5.880000e-02 2.558485e-12
-5.795000e-02 4.586943e-11
-5.710001e-02 9.066969e-11
-5.625001e-02 1.316827e-10
-5.540001e-02 1.634740e-10
-5.455001e-02 1.811203e-10
-5.370001e-02 1.808634e-10
-5.285000e-02 1.606589e-10
-5.200000e-02 1.205427e-10
-5.115000e-02 6.276019e-11
-5.030000e-02 -8.363941e-12
-4.945000e-02 -8.680405e-11
-4.860000e-02 -1.654130e-10
-4.775000e-02 -2.366300e-10
-4.690000e-02 -2.932282e-10
-4.605000e-02 -3.290137e-10
-4.520001e-02 -3.393959e-10
-4.435001e-02 -3.217763e-10
-4.350001e-02 -2.757300e-10
-4.265001e-02 -2.029878e-10
-4.180001e-02 -1.072504e-10
-4.095000e-02 6.110719e-12
-4.010000e-02 1.304113e-10
-3.925000e-02 2.580209e-10
-3.840000e-02 3.807048e-10
-3.755000e-02 4.899363e-10
-3.670000e-02 5.771930e-10
-3.585000e-02 6.342760e-10
-3.500000e-02 6.536926e-10
-3.415000e-02 6.291379e-10
-3.330000e-02 5.560923e-10
-3.245001e-02 4.325091e-10
-3.160001e-02 2.595369e-10
-3.075001e-02 4.217417e-11
-2.990001e-02 -2.102686e-10
-2.905000e-02 -4.840349e-10
-2.820000e-02 -7.612344e-10
-2.735000e-02 -1.020682e-09
-2.650000e-02 -1.239281e-09
-2.565000e-02 -1.393882e-09
-2.480000e-02 -1.463483e-09
-2.395000e-02 -1.431548e-09
-2.310000e-02 -1.288181e-09
-2.225000e-02 -1.031882e-09
-2.140000e-02 -6.706182e-10
-2.055001e-02 -2.220317e-10
-1.970001e-02 2.873267e-10
-1.885001e-02 8.237054e-10
-1.800001e-02 1.348670e-09
-1.715000e-02 1.822175e-09
-1.630000e-02 2.205873e-09
-1.545000e-02 2.466310e-09
-1.460000e-02 2.577658e-09
-1.375000e-02 2.523724e-09
-1.290000e-02 2.299056e-09
-1.205000e-02 1.909100e-09
-1.120000e-02 1.369471e-09
-1.035000e-02 7.045241e-10
-9.500004e-03 -5.454917e-11
-8.650005e-03 -8.718200e-10
-7.800005e-03 -1.708686e-09
-6.950006e-03 -2.525725e-09
-6.100006e-03 -3.284247e-09
-5.250007e-03 -3.947548e-09
-4.400000e-03 -4.481949e-09
-3.550000e-03 -4.857762e-09
-2.700001e-03 -5.050295e-09
-1.850002e-03 -5.041019e-09
-1.000002e-03 -4.818913e-09
-1.500025e-04 -4.381918e-09
6.999969e-04 -3.738360e-09
1.549996e-03 -2.908107e-09
2.399996e-03 -1.923225e-09
3.249995e-03 -8.279133e-10
4.099995e-03 3.224597e-10
4.949994e-03 1.463228e-09
5.799994e-03 2.523112e-09
6.650001e-03 3.427542e-09
7.499993e-03 4.102181e-09
8.350000e-03 4.476364e-09
9.199992e-03 4.485995e-09
1.005000e-02 4.075571e-09
1.089999e-02 3.199097e-09
1.175000e-02 1.819826e-09
1.259999e-02 -9.123223e-11
1.345000e-02 -2.557674e-09
1.430000e-02 -5.600893e-09
1.515000e-02 -9.243744e-09
1.600000e-02 -1.351434e-08
1.684999e-02 -1.844992e-08
1.770000e-02 -2.410079e-08
1.854999e-02 -3.053396e-08
1.940000e-02 -3.783705e-08
2.024999e-02 -4.612251e-08
2.110000e-02 -5.553261e-08
2.194999e-02 -6.624413e-08
2.280000e-02 -7.847509e-08
2.364999e-02 -9.249128e-08
2.450000e-02 -1.086139e-07
2.535000e-02 -1.272278e-07
2.620000e-02 -1.487903e-07
2.705000e-02 -1.738396e-07
2.790000e-02 -2.030056e-07
2.875000e-02 -2.370184e-07
2.959999e-02 -2.767208e-07
3.045000e-02 -3.230775e-07
3.129999e-02 -3.771913e-07
3.215000e-02 -4.403165e-07
3.299999e-02 -5.138749e-07
3.385000e-02 -5.994789e-07
3.469999e-02 -6.989497e-07
3.555000e-02 -8.143472e-07
3.639999e-02 -9.479924e-07
3.725000e-02 -1.102502e-06
3.810000e-02 -1.280822e-06
3.895000e-02 -1.486258e-06
3.980000e-02 -1.722519e-06
4.065000e-02 -1.993759e-06
4.150000e-02 -2.304614e-06
4.234999e-02 -2.660252e-06
4.320000e-02 -3.066422e-06
4.404999e-02 -3.529504e-06
4.490000e-02 -4.056554e-06
4.574999e-02 -4.655368e-06
4.660000e-02 -5.334535e-06
4.744999e-02 -6.103486e-06
4.830000e-02 -6.972531e-06
4.914999e-02 -7.952959e-06
5.000000e-02 -9.057025e-06
5.085000e-02 -1.029803e-05
5.170000e-02 -1.169038e-05
5.255000e-02 -1.324952e-05
5.339999e-02 -1.499212e-05
5.425000e-02 -1.693595e-05
5.509999e-02 -1.910001e-05
5.595000e-02 -2.150440e-05
5.679999e-02 -2.417046e-05
5.765000e-02 -2.712062e-05
5.849999e-02 -3.037846e-05
5.935000e-02 -3.396855e-05
6.019999e-02 -3.791644e-05
6.105000e-02 -4.224856e-05
6.190000e-02 -4.699202e-05
6.275000e-02 -5.217448e-05
6.360000e-02 -5.782401e-05
6.445000e-02 -6.396875e-05
6.530000e-02 -7.063668e-05
6.614999e-02 -7.785542e-05
6.700000e-02 -8.565177e-05
6.784999e-02 -9.405141e-05
6.870000e-02 -1.030784e-04
6.954999e-02 -1.127550e-04
7.040000e-02 -1.231007e-04
7.124999e-02 -1.341320e-04
7.210000e-02 -1.458622e-04
7.294999e-02 -1.583000e-04
7.380000e-02 -1.714495e-04
7.465000e-02 -1.853092e-04
7.550000e-02 -1.998718e-04
7.635000e-02 -2.151226e-04
7.720000e-02 -2.310402e-04
7.805000e-02 -2.475942e-04
7.889999e-02 -2.647458e-04
7.975000e-02 -2.824468e-04
8.059999e-02 -3.006385e-04
8.145000e-02 -3.192518e-04
8.229999e-02 -3.382064e-04
8.315000e-02 -3.574103e-04
8.399999e-02 -3.767591e-04
8.485000e-02 -3.961372e-04
8.570001e-02 -4.154161e-04
8.655000e-02 -4.344544e-04
8.740000e-02 -4.530996e-04
8.825000e-02 -4.711863e-04
8.910000e-02 -4.885381e-04
8.995000e-02 -5.049680e-04
9.080000e-02 -5.202780e-04
9.164999e-02 -5.342626e-04
9.250000e-02 -5.467071e-04
9.334999e-02 -5.573913e-04
9.420000e-02 -5.660896e-04
9.504999e-02 -5.725739e-04
9.590000e-02 -5.766151e-04
9.674999e-02 -5.779846e-04
9.760000e-02 -5.764581e-04
9.845001e-02 -5.718173e-04
9.930000e-02 -5.638513e-04
1.001500e-01 -5.523618e-04
1.010000e-01 -5.371642e-04
1.018500e-01 -5.180903e-04
1.027000e-01 -4.949921e-04
1.035500e-01 -4.677440e-04
1.044000e-01 -4.362462e-04
1.052500e-01 -4.004263e-04
1.061000e-01 -3.602429e-04
1.069500e-01 -3.156877e-04
1.078000e-01 -2.667875e-04
1.086500e-01 -2.136054e-04
1.095000e-01 -1.562446e-04
1.103500e-01 -9.484663e-05
1.112000e-01 -2.959453e-05
1.120500e-01 3.928732e-05
1.129000e-01 1.115339e-04
1.137500e-01 1.868386e-04
1.146000e-01 2.648552e-04
1.154500e-01 3.451993e-04
1.163000e-01 4.274490e-04
1.171500e-01 5.111485e-04
1.180000e-01 5.958102e-04
1.188500e-01 6.809182e-04
1.197000e-01 7.659319e-04
1.205500e-01 8.502916e-04
1.214000e-01 9.334197e-04
1.222500e-01 1.014729e-03
1.231000e-01 1.093627e-03
1.239500e-01 1.169519e-03
1.248000e-01 1.241816e-03
1.256500e-01 1.309942e-03
1.265000e-01 1.373335e-03
1.273500e-01 1.431456e-03
1.282000e-01 1.483795e-03
1.290500e-01 1.529875e-03
1.299000e-01 1.569258e-03
1.307500e-01 1.601547e-03
1.316000e-01 1.626396e-03
1.324500e-01 1.643511e-03
1.333000e-01 1.652652e-03
1.341500e-01 1.653641e-03
1.350000e-01 1.646358e-03
1.358500e-01 1.630750e-03
1.367000e-01 1.606825e-03
1.375500e-01 1.574659e-03
1.384000e-01 1.534394e-03
1.392500e-01 1.486231e-03
1.401000e-01 1.430440e-03
1.409500e-01 1.367349e-03
1.418000e-01 1.297341e-03
1.426500e-01 1.220858e-03
1.435000e-01 1.138390e-03
1.443500e-01 1.050473e-03
1.452000e-01 9.576831e-04
1.460500e-01 8.606334e-04
1.469000e-01 7.599648e-04
1.477500e-01 6.563421e-04
1.486000e-01 5.504486e-04
1.494500e-01 4.429774e-04
1.503000e-01 3.346262e-04
1.511500e-01 2.260908e-04
1.520000e-01 1.180593e-04
1.528500e-01 1.120517e-05
1.537000e-01 -9.381823e-05
1.545500e-01 -1.963832e-04
1.554000e-01 -2.958932e-04
1.562500e-01 -3.917866e-04
1.571000e-01 -4.835423e-04
1.579500e-01 -5.706828e-04
1.588000e-01 -6.527770e-04
1.596500e-01 -7.294438e-04
1.605000e-01 -8.003539e-04
1.613500e-01 -8.652309e-04
1.622000e-01 -9.238529e-04
1.630500e-01 -9.760522e-04
1.639000e-01 -1.021715e-03
1.647500e-01 -1.060780e-03
1.656000e-01 -1.093240e-03
1.664500e-01 -1.119138e-03
1.673000e-01 -1.138561e-03
1.681500e-01 -1.151647e-03
1.690000e-01 -1.158572e-03
1.698500e-01 -1.159553e-03
1.707000e-01 -1.154841e-03
1.715500e-01 -1.144721e-03
1.724000e-01 -1.129504e-03
1.732500e-01 -1.109525e-03
1.741000e-01 -1.085138e-03
1.749500e-01 -1.056714e-03
1.758000e-01 -1.024634e-03
1.766500e-01 -9.892888e-04
1.775000e-01 -9.510695e-04
1.783500e-01 -9.103705e-04
1.792000e-01 -8.675816e-04
1.800500e-01 -8.230862e-04
1.809000e-01 -7.772582e-04
1.817500e-01 -7.304595e-04
1.826000e-01 -6.830372e-04
1.834500e-01 -6.353223e-04
1.843000e-01 -5.876267e-04
1.851500e-01 -5.402429e-04
1.860000e-01 -4.934416e-04
1.868500e-01 -4.474722e-04
1.877000e-01 -4.025608e-04
1.885500e-01 -3.589105e-04
1.894000e-01 -3.167011e-04
1.902500e-01 -2.760896e-04
1.911000e-01 -2.372093e-04
1.919500e-01 -2.001724e-04
1.928000e-01 -1.650684e-04
1.936500e-01 -1.319664e-04
1.945000e-01 -1.009161e-04
1.953500e-01 -7.194806e-05
1.962000e-01 -4.507547e-05
1.970500e-01 -2.029539e-05
1.979000e-01 2.410008e-06
1.987500e-01 2.307212e-05
1.996000e-01 4.173476e-05
2.004500e-01 5.845222e-05
2.013000e-01 7.328876e-05
2.021500e-01 8.631645e-05
2.030000e-01 9.761456e-05
2.038500e-01 1.072681e-04
2.047000e-01 1.153666e-04
2.055500e-01 1.220029e-04
2.064000e-01 1.272725e-04
2.072500e-01 1.312724e-04
2.081000e-01 1.340998e-04
2.089500e-01 1.358519e-04
2.098000e-01 1.366247e-04
2.106500e-01 1.365126e-04
2.115000e-01 1.356077e-04
2.123500e-01 1.339992e-04
2.132000e-01 1.317733e-04
2.140500e-01 1.290123e-04
2.149000e-01 1.257948e-04
2.157500e-01 1.221952e-04
2.166000e-01 1.182836e-04
2.174500e-01 1.141254e-04
2.183000e-01 1.097819e-04
2.191500e-01 1.053093e-04
2.200000e-01 1.007596e-04
2.208500e-01 9.618015e-05
2.217000e-01 9.161381e-05
2.225500e-01 8.709906e-05
2.234000e-01 8.267018e-05
2.242500e-01 7.835736e-05
2.251000e-01 7.418688e-05
2.259500e-01 7.018128e-05
2.268000e-01 6.635953e-05
2.276500e-01 6.273727e-05
2.285000e-01 5.932701e-05
2.293500e-01 5.613823e-05
2.302000e-01 5.317780e-05
2.310500e-01 5.045005e-05
2.319000e-01 4.795696e-05
2.327500e-01 4.569843e-05
2.336000e-01 4.367234e-05
2.344500e-01 4.187488e-05
2.353000e-01 4.030066e-05
2.361500e-01 3.894272e-05
2.370000e-01 3.779296e-05
2.378500e-01 3.684200e-05
2.387000e-01 3.607943e-05
2.395500e-01 3.549402e-05
2.404000e-01 3.507370e-05
2.412500e-01 3.480576e-05
2.421000e-01 3.467693e-05
2.429500e-01 3.467347e-05
2.438000e-01 3.478136e-05
2.446500e-01 3.498626e-05
2.455000e-01 3.527370e-05
2.463500e-01 3.562922e-05
2.472000e-01 3.603834e-05
2.480500e-01 3.648671e-05
2.489000e-01 3.696023e-05
2.497500e-01 3.744502e-05
2.506000e-01 3.792769e-05
2.514500e-01 3.839525e-05
2.523000e-01 3.883526e-05
2.531500e-01 3.923597e-05
2.540000e-01 3.958627e-05
2.548500e-01 3.987590e-05
2.557000e-01 4.009541e-05
2.565500e-01 4.023633e-05
2.574000e-01 4.029108e-05
2.582500e-01 4.025320e-05
2.591000e-01 4.011720e-05
2.599500e-01 3.987868e-05
2.608000e-01 3.953437e-05
2.616500e-01 3.908205e-05
2.625000e-01 3.852056e-05
2.633500e-01 3.784982e-05
2.642000e-01 3.707069e-05
2.650500e-01 3.618509e-05
2.659000e-01 3.519575e-05
2.667500e-01 3.410631e-05
2.676000e-01 3.292117e-05
2.684500e-01 3.164547e-05
2.693000e-01 3.028494e-05
2.701500e-01 2.884592e-05
2.710000e-01 2.733521e-05
2.718500e-01 2.575996e-05
2.727000e-01 2.412765e-05
2.735500e-01 2.244595e-05
2.744000e-01 2.072269e-05
2.752500e-01 1.896569e-05
2.761000e-01 1.718278e-05
2.769500e-01 1.538165e-05
2.778000e-01 1.356988e-05
2.786500e-01 1.175481e-05
2.795000e-01 9.943563e-06
2.803500e-01 8.143008e-06
2.812000e-01 6.359693e-06
2.820500e-01 4.599868e-06
2.829000e-01 2.869476e-06
2.837500e-01 1.174148e-06
2.846000e-01 -4.808283e-07
2.854500e-01 -2.090455e-06
2.863000e-01 -3.650061e-06
2.871500e-01 -5.155244e-06
2.880000e-01 -6.601882e-06
2.888500e-01 -7.986122e-06
2.897000e-01 -9.304324e-06
2.905500e-01 -1.055310e-05
2.914000e-01 -1.172925e-05
2.922500e-01 -1.282978e-05
2.931000e-01 -1.385192e-05
2.939500e-01 -1.479309e-05
2.948000e-01 -1.565092e-05
2.956500e-01 -1.642330e-05
2.965000e-01 -1.710834e-05
2.973500e-01 -1.770444e-05
2.982000e-01 -1.821026e-05
2.990500e-01 -1.862474e-05
2.999000e-01 -1.894718e-05
3.007500e-01 -1.917717e-05
3.016000e-01 -1.931464e-05
3.024500e-01 -1.935989e-05
3.033000e-01 -1.931357e-05
3.041500e-01 -1.917670e-05
3.050000e-01 -1.895068e-05
3.058500e-01 -1.863727e-05
3.067000e-01 -1.823862e-05
3.075500e-01 -1.775725e-05
3.084000e-01 -1.719600e-05
3.092500e-01 -1.655810e-05
3.101000e-01 -1.584707e-05
3.109500e-01 -1.506675e-05
3.118000e-01 -1.422123e-05
3.126500e-01 -1.331486e-05
3.135000e-01 -1.235223e-05
3.143500e-01 -1.133809e-05
3.152000e-01 -1.027735e-05
3.160500e-01 -9.175033e-06
3.169000e-01 -8.036263e-06
3.177500e-01 -6.866205e-06
3.186000e-01 -5.670046e-06
3.194500e-01 -4.452968e-06
3.203000e-01 -3.220118e-06
3.211500e-01 -1.976595e-06
3.220000e-01 -7.274365e-07
3.228500e-01 5.223864e-07
3.237000e-01 1.767974e-06
3.245500e-01 3.004496e-06
3.254000e-01 4.227189e-06
3.262500e-01 5.431353e-06
3.271000e-01 6.612346e-06
3.279500e-01 7.765583e-06
3.288000e-01 8.886539e-06
3.296500e-01 9.970759e-06
3.305000e-01 1.101383e-05
3.313500e-01 1.201144e-05
3.322000e-01 1.295933e-05
3.330500e-01 1.385333e-05
3.339000e-01 1.468939e-05
3.347500e-01 1.546355e-05
3.356000e-01 1.617200e-05
3.364500e-01 1.681107e-05
3.373000e-01 1.737727e-05
3.381500e-01 1.786735e-05
3.390000e-01 1.827828e-05
3.398500e-01 1.860733e-05
3.407000e-01 1.885214e-05
3.415500e-01 1.901070e-05
3.424000e-01 1.908145e-05
3.432500e-01 1.906332e-05
3.441000e-01 1.895573e-05
3.449500e-01 1.875871e-05
3.458000e-01 1.847286e-05
3.466500e-01 1.809940e-05
3.475000e-01 1.764020e-05
3.483500e-01 1.709776e-05
3.492000e-01 1.647524e-05
3.500500e-01 1.577642e-05
3.509000e-01 1.500568e-05
3.517500e-01 1.416800e-05
3.526000e-01 1.326888e-05
3.534500e-01 1.231435e-05
3.543000e-01 1.131087e-05
3.551500e-01 1.026531e-05
3.560000e-01 9.184893e-06
3.568500e-01 8.077114e-06
3.577000e-01 6.949677e-06
3.585500e-01 5.810432e-06
3.594000e-01 4.667291e-06
3.602500e-01 3.528148e-06
3.611000e-01 2.400791e-06
3.619500e-01 1.292836e-06
3.628000e-01 2.116341e-07
3.636500e-01 -8.357969e-07
3.645000e-01 -1.842836e-06
3.653500e-01 -2.803321e-06
3.662000e-01 -3.711596e-06
3.670500e-01 -4.562549e-06
3.679000e-01 -5.351642e-06
3.687500e-01 -6.074927e-06
3.696000e-01 -6.729065e-06
3.704500e-01 -7.311326e-06
3.713000e-01 -7.819593e-06
3.721500e-01 -8.252342e-06
3.730000e-01 -8.608635e-06
3.738500e-01 -8.888107e-06
3.747000e-01 -9.090920e-06
3.755500e-01 -9.217761e-06
3.764000e-01 -9.269789e-06
3.772500e-01 -9.248619e-06
3.781000e-01 -9.156271e-06
3.789500e-01 -8.995147e-06
3.798000e-01 -8.768006e-06
3.806500e-01 -8.477913e-06
3.815000e-01 -8.128233e-06
3.823500e-01 -7.722590e-06
3.832000e-01 -7.264844e-06
3.840500e-01 -6.759057e-06
3.849000e-01 -6.209472e-06
3.857500e-01 -5.620477e-06
3.866000e-01 -4.996582e-06
3.874500e-01 -4.342390e-06
3.883000e-01 -3.662561e-06
3.891500e-01 -2.961811e-06
