-1.200000e-01 0.000000e+00
-1.191500e-01 0.000000e+00
-1.183000e-01 0.000000e+00
-1.174500e-01 0.000000e+00
-1.166000e-01 0.000000e+00
-1.157500e-01 0.000000e+00
-1.149000e-01 0.000000e+00
-1.140500e-01 4.852193e-26
-1.132000e-01 6.229248e-25
-1.123500e-01 4.142940e-24
-1.115000e-01 1.887247e-23
-1.106500e-01 6.557680e-23
-1.098000e-01 1.829119e-22
-1.089500e-01 4.179428e-22
-1.081000e-01 7.751965e-22
-1.072500e-01 1.090135e-21
-1.064000e-01 8.085224e-22
-1.055500e-01 -1.286147e-21
-1.047000e-01 -7.235911e-21
-1.038500e-01 -1.964085e-20
-1.030000e-01 -4.050769e-20
-1.021500e-01 -6.878874e-20
-1.013000e-01 -9.653895e-20
-1.004500e-01 -1.044317e-19
-9.960000e-02 -5.862939e-20
-9.875000e-02 8.758462e-20
-9.790000e-02 3.830911e-19
-9.705000e-02 8.553405e-19
-9.620000e-02 1.473065e-18
-9.535000e-02 2.100527e-18
-9.450001e-02 2.457272e-18
-9.365001e-02 2.106734e-18
-9.280001e-02 5.035846e-19
-9.195001e-02 -2.872024e-18
-9.110001e-02 -8.279841e-18
-9.025000e-02 -1.540204e-17
-8.940001e-02 -2.300595e-17
-8.855000e-02 -2.870167e-17
-8.770001e-02 -2.895136e-17
-8.685000e-02 -1.949771e-17
-8.600000e-02 3.664833e-18
-8.515000e-02 4.276515e-17
-8.430000e-02 9.634934e-17
-8.345000e-02 1.573937e-16
-8.260000e-02 2.120590e-16
-8.175001e-02 2.398444e-16
-8.090001e-02 2.158706e-16
-8.005001e-02 1.157439e-16
-7.920000e-02 -7.709270e-17
-7.835001e-02 -3.624002e-16
-7.750000e-02 -7.143456e-16
-7.665001e-02 -1.075423e-15
-7.580000e-02 -1.356053e-15
-7.495001e-02 -1.442601e-15
-7.410000e-02 -1.215421e-15
-7.325000e-02 -5.766099e-16
-7.240000e-02 5.155683e-16
-7.155000e-02 2.011554e-15
-7.070000e-02 3.743135e-15
-6.985001e-02 5.413681e-15
-6.900001e-02 6.615114e-15
-6.815000e-02 6.877671e-15
-6.730001e-02 5.752822e-15
-6.645000e-02 2.922108e-15
-6.560001e-02 -1.683810e-15
-6.475000e-02 -7.779128e-15
-6.390001e-02 -1.465768e-14
-6.305000e-02 -2.119610e-14
-6.220000e-02 -2.594629e-14
-6.135000e-02 -2.732559e-14
-6.050000e-02 -2.389433e-14
-5.965000e-02 -1.468945e-14
-5.880000e-02 4.374673e-16
-5.795000e-02 2.054450e-14
-5.710001e-02 4.345762e-14
-5.625001e-02 6.582709e-14
-5.540001e-02 8.342268e-14
-5.455001e-02 9.167335e-14
-5.370001e-02 8.641007e-14
-5.285000e-02 6.472420e-14
-5.200000e-02 2.581020e-14
-5.115000e-02 -2.836362e-14
-5.030000e-02 -9.271633e-14
-4.945000e-02 -1.591811e-13
-4.860000e-02 -2.173767e-13
-4.775000e-02 -2.558203e-13
-4.690000e-02 -2.635878e-13
-4.605000e-02 -2.322252e-13
-4.520001e-02 -1.576416e-13
-4.435001e-02 -4.166326e-14
-4.350001e-02 1.070686e-13
-4.265001e-02 2.731221e-13
-4.180001e-02 4.353773e-13
-4.095000e-02 5.692113e-13
-4.010000e-02 6.496009e-13
-3.925000e-02 6.547959e-13
-3.840000e-02 5.700855e-13
-3.755000e-02 3.910858e-13
-3.670000e-02 1.259840e-13
-3.585000e-02 -2.037441e-13
-3.500000e-02 -5.644483e-13
-3.415000e-02 -9.133103e-13
-3.330000e-02 -1.203026e-12
-3.245001e-02 -1.387661e-12
-3.160001e-02 -1.428976e-12
-3.075001e-02 -1.302337e-12
-2.990001e-02 -1.001368e-12
-2.905000e-02 -5.405686e-13
-2.820000e-02 4.459943e-14
-2.735000e-02 7.003582e-13
-2.650000e-02 1.359768e-12
-2.565000e-02 1.949838e-12
-2.480000e-02 2.399713e-12
-2.395000e-02 2.648901e-12
-2.310000e-02 2.654464e-12
-2.225000e-02 2.396267e-12
-2.140000e-02 1.879607e-12
-2.055001e-02 1.134994e-12
-1.970001e-02 2.151969e-13
-1.885001e-02 -8.098878e-13
-1.800001e-02 -1.859771e-12
-1.715000e-02 -2.850350e-12
-1.630000e-02 -3.700469e-12
-1.545000e-02 -4.337341e-12
-1.460000e-02 -4.700479e-12
-1.375000e-02 -4.744120e-12
-1.290000e-02 -4.438480e-12
-1.205000e-02 -3.770403e-12
-1.120000e-02 -2.744073e-12
-1.035000e-02 -1.382286e-12
-9.500004e-03 2.714369e-13
-8.650005e-03 2.150104e-12
-7.800005e-03 4.160503e-12
-6.950006e-03 6.181535e-12
-6.100006e-03 8.064871e-12
-5.250007e-03 9.639312e-12
-4.400000e-03 1.071978e-11
-3.550000e-03 1.112137e-11
-2.700001e-03 1.067815e-11
-1.850002e-03 9.265050e-12
-1.000002e-03 6.820963e-12
-1.500025e-04 3.369748e-12
6.999969e-04 -9.640630e-13
1.549996e-03 -5.948110e-12
2.399996e-03 -1.124620e-11
3.249995e-03 -1.643491e-11
4.099995e-03 -2.103272e-11
4.949994e-03 -2.454007e-11
5.799994e-03 -2.648677e-11
6.650001e-03 -2.648238e-11
7.499993e-03 -2.426372e-11
8.350000e-03 -1.973433e-11
9.199992e-03 -1.299054e-11
1.005000e-02 -4.330740e-12
1.089999e-02 5.754028e-12
1.175000e-02 1.660801e-11
1.259999e-02 2.745474e-11
1.345000e-02 3.745322e-11
1.430000e-02 4.576086e-11
1.515000e-02 5.159777e-11
1.600000e-02 5.430692e-11
1.684999e-02 5.340549e-11
1.770000e-02 4.862466e-11
1.854999e-02 3.993562e-11
1.940000e-02 2.756189e-11
2.024999e-02 1.197799e-11
2.110000e-02 -6.103881e-12
2.194999e-02 -2.575860e-11
2.280000e-02 -4.588321e-11
2.364999e-02 -6.524215e-11
2.450000e-02 -8.252270e-11
2.535000e-02 -9.640049e-11
2.620000e-02 -1.056147e-10
2.705000e-02 -1.090504e-10
2.790000e-02 -1.058263e-10
2.875000e-02 -9.538012e-11
2.959999e-02 -7.754700e-11
3.045000e-02 -5.262174e-11
3.129999e-02 -2.139684e-11
3.215000e-02 1.483104e-11
3.299999e-02 5.429125e-11
3.385000e-02 9.480858e-11
3.469999e-02 1.339099e-10
3.555000e-02 1.689636e-10
3.639999e-02 1.973419e-10
3.725000e-02 2.165954e-10
3.810000e-02 2.246261e-10
3.895000e-02 2.198471e-10
3.980000e-02 2.013153e-10
4.065000e-02 1.688299e-10
4.150000e-02 1.229884e-10
4.234999e-02 6.519869e-11
4.320000e-02 -2.352464e-12
4.404999e-02 -7.677337e-11
4.490000e-02 -1.545771e-10
4.574999e-02 -2.318236e-10
4.660000e-02 -3.042866e-10
4.744999e-02 -3.676422e-10
4.830000e-02 -4.176719e-10
4.914999e-02 -4.504775e-10
5.000000e-02 -4.626997e-10
5.085000e-02 -4.517355e-10
5.170000e-02 -4.159446e-10
5.255000e-02 -3.548338e-10
5.339999e-02 -2.692086e-10
5.425000e-02 -1.612737e-10
5.509999e-02 -3.467295e-11
5.595000e-02 1.055483e-10
5.679999e-02 2.530657e-10
5.765000e-02 4.004873e-10
5.849999e-02 5.396560e-10
5.935000e-02 6.620275e-10
6.019999e-02 7.591111e-10
6.105000e-02 8.229490e-10
6.190000e-02 8.466033e-10
6.275000e-02 8.246216e-10
6.360000e-02 7.534479e-10
6.445000e-02 6.317496e-10
6.530000e-02 4.606429e-10
6.614999e-02 2.437924e-10
6.700000e-02 -1.261234e-11
6.784999e-02 -3.000080e-10
6.870000e-02 -6.077256e-10
6.954999e-02 -9.233576e-10
7.040000e-02 -1.233213e-09
7.124999e-02 -1.522836e-09
7.210000e-02 -1.777570e-09
7.294999e-02 -1.983156e-09
7.380000e-02 -2.126356e-09
7.465000e-02 -2.195566e-09
7.550000e-02 -2.181444e-09
7.635000e-02 -2.077496e-09
7.720000e-02 -1.880642e-09
7.805000e-02 -1.591703e-09
7.889999e-02 -1.215811e-09
7.975000e-02 -7.626975e-10
8.059999e-02 -2.468348e-10
8.145000e-02 3.125794e-10
8.229999e-02 8.918153e-10
8.315000e-02 1.462974e-09
8.399999e-02 1.994490e-09
8.485000e-02 2.451749e-09
8.570001e-02 2.797738e-09
8.655000e-02 2.993693e-09
8.740000e-02 2.999622e-09
8.825000e-02 2.774668e-09
8.910000e-02 2.277226e-09
8.995000e-02 1.464733e-09
9.080000e-02 2.931411e-10
9.164999e-02 -1.284004e-09
9.250000e-02 -3.316864e-09
9.334999e-02 -5.860992e-09
9.420000e-02 -8.979405e-09
9.504999e-02 -1.274506e-08
9.590000e-02 -1.724372e-08
9.674999e-02 -2.257725e-08
9.760000e-02 -2.886747e-08
9.845001e-02 -3.626043e-08
9.930000e-02 -4.493142e-08
1.001500e-01 -5.509060e-08
1.010000e-01 -6.698932e-08
1.018500e-01 -8.092745e-08
1.027000e-01 -9.726114e-08
1.035500e-01 -1.164118e-07
1.044000e-01 -1.388757e-07
1.052500e-01 -1.652345e-07
1.061000e-01 -1.961662e-07
1.069500e-01 -2.324580e-07
1.078000e-01 -2.750186e-07
1.086500e-01 -3.248931e-07
1.095000e-01 -3.832775e-07
1.103500e-01 -4.515358e-07
1.112000e-01 -5.312179e-07
1.120500e-01 -6.240786e-07
1.129000e-01 -7.321007e-07
1.137500e-01 -8.575161e-07
1.146000e-01 -1.002833e-06
1.154500e-01 -1.170862e-06
1.163000e-01 -1.364745e-06
1.171500e-01 -1.587988e-06
1.180000e-01 -1.844494e-06
1.188500e-01 -2.138592e-06
1.197000e-01 -2.475083e-06
1.205500e-01 -2.859265e-06
1.214000e-01 -3.296981e-06
1.222500e-01 -3.794651e-06
1.231000e-01 -4.359319e-06
1.239500e-01 -4.998680e-06
1.248000e-01 -5.721130e-06
1.256500e-01 -6.535799e-06
1.265000e-01 -7.452590e-06
1.273500e-01 -8.482201e-06
1.282000e-01 -9.636175e-06
1.290500e-01 -1.092690e-05
1.299000e-01 -1.236766e-05
1.307500e-01 -1.397261e-05
1.316000e-01 -1.575680e-05
1.324500e-01 -1.773619e-05
1.333000e-01 -1.992759e-05
1.341500e-01 -2.234865e-05
1.350000e-01 -2.501785e-05
1.358500e-01 -2.795439e-05
1.367000e-01 -3.117816e-05
1.375500e-01 -3.470963e-05
1.384000e-01 -3.856973e-05
1.392500e-01 -4.277976e-05
1.401000e-01 -4.736118e-05
1.409500e-01 -5.233545e-05
1.418000e-01 -5.772392e-05
1.426500e-01 -6.354739e-05
1.435000e-01 -6.982606e-05
1.443500e-01 -7.657912e-05
1.452000e-01 -8.382446e-05
1.460500e-01 -9.157833e-05
1.469000e-01 -9.985500e-05
1.477500e-01 -1.086663e-04
1.486000e-01 -1.180212e-04
1.494500e-01 -1.279254e-04
1.503000e-01 -1.383809e-04
1.511500e-01 -1.493852e-04
1.520000e-01 -1.609315e-04
1.528500e-01 -1.730072e-04
1.537000e-01 -1.855944e-04
1.545500e-01 -1.986685e-04
1.554000e-01 -2.121984e-04
1.562500e-01 -2.261457e-04
1.571000e-01 -2.404638e-04
1.579500e-01 -2.550985e-04
1.588000e-01 -2.699865e-04
1.596500e-01 -2.850562e-04
1.605000e-01 -3.002260e-04
1.613500e-01 -3.154057e-04
1.622000e-01 -3.304950e-04
1.630500e-01 -3.453845e-04
1.639000e-01 -3.599551e-04
1.647500e-01 -3.740785e-04
1.656000e-01 -3.876177e-04
1.664500e-01 -4.004270e-04
1.673000e-01 -4.123528e-04
1.681500e-01 -4.232347e-04
1.690000e-01 -4.329055e-04
1.698500e-01 -4.411934e-04
1.707000e-01 -4.479221e-04
1.715500e-01 -4.529130e-04
1.724000e-01 -4.559857e-04
1.732500e-01 -4.569612e-04
1.741000e-01 -4.556621e-04
1.749500e-01 -4.519148e-04
1.758000e-01 -4.455525e-04
1.766500e-01 -4.364161e-04
1.775000e-01 -4.243573e-04
1.783500e-01 -4.092398e-04
1.792000e-01 -3.909423e-04
1.800500e-01 -3.693607e-04
1.809000e-01 -3.444097e-04
1.817500e-01 -3.160260e-04
1.826000e-01 -2.841692e-04
1.834500e-01 -2.488243e-04
1.843000e-01 -2.100032e-04
1.851500e-01 -1.677473e-04
1.860000e-01 -1.221275e-04
1.868500e-01 -7.324618e-05
1.877000e-01 -2.123784e-05
1.885500e-01 3.373062e-05
1.894000e-01 9.145866e-05
1.902500e-01 1.517135e-04
1.911000e-01 2.142300e-04
1.919500e-01 2.787111e-04
1.928000e-01 3.448302e-04
1.936500e-01 4.122313e-04
1.945000e-01 4.805324e-04
1.953500e-01 5.493268e-04
1.962000e-01 6.181870e-04
1.970500e-01 6.866663e-04
1.979000e-01 7.543040e-04
1.987500e-01 8.206280e-04
1.996000e-01 8.851585e-04
2.004500e-01 9.474133e-04
2.013000e-01 1.006912e-03
2.021500e-01 1.063179e-03
2.030000e-01 1.115752e-03
2.038500e-01 1.164180e-03
2.047000e-01 1.208037e-03
2.055500e-01 1.246916e-03
2.064000e-01 1.280443e-03
2.072500e-01 1.308277e-03
2.081000e-01 1.330111e-03
2.089500e-01 1.345681e-03
2.098000e-01 1.354768e-03
2.106500e-01 1.357197e-03
2.115000e-01 1.352843e-03
2.123500e-01 1.341635e-03
2.132000e-01 1.323552e-03
2.140500e-01 1.298626e-03
2.149000e-01 1.266945e-03
2.157500e-01 1.228649e-03
2.166000e-01 1.183932e-03
2.174500e-01 1.133039e-03
2.183000e-01 1.076265e-03
2.191500e-01 1.013951e-03
2.200000e-01 9.464821e-04
2.208500e-01 8.742856e-04
2.217000e-01 7.978247e-04
2.225500e-01 7.175955e-04
2.234000e-01 6.341215e-04
2.242500e-01 5.479497e-04
2.251000e-01 4.596452e-04
2.259500e-01 3.697856e-04
2.268000e-01 2.789563e-04
2.276500e-01 1.877443e-04
2.285000e-01 9.673298e-05
2.293500e-01 6.498240e-06
2.302000e-01 -8.239889e-05
2.310500e-01 -1.694155e-04
2.319000e-01 -2.540319e-04
2.327500e-01 -3.357560e-04
2.336000e-01 -4.141275e-04
2.344500e-01 -4.887210e-04
2.353000e-01 -5.591489e-04
2.361500e-01 -6.250649e-04
2.370000e-01 -6.861656e-04
2.378500e-01 -7.421916e-04
2.387000e-01 -7.929308e-04
2.395500e-01 -8.382155e-04
2.404000e-01 -8.779262e-04
2.412500e-01 -9.119891e-04
2.421000e-01 -9.403761e-04
2.429500e-01 -9.631033e-04
2.438000e-01 -9.802288e-04
2.446500e-01 -9.918527e-04
2.455000e-01 -9.981114e-04
2.463500e-01 -9.991786e-04
2.472000e-01 -9.952591e-04
2.480500e-01 -9.865882e-04
2.489000e-01 -9.734266e-04
2.497500e-01 -9.560583e-04
2.506000e-01 -9.347848e-04
2.514500e-01 -9.099251e-04
2.523000e-01 -8.818097e-04
2.531500e-01 -8.507767e-04
2.540000e-01 -8.171694e-04
2.548500e-01 -7.813337e-04
2.557000e-01 -7.436137e-04
2.565500e-01 -7.043484e-04
2.574000e-01 -6.638708e-04
2.582500e-01 -6.225036e-04
2.591000e-01 -5.805577e-04
2.599500e-01 -5.383301e-04
2.608000e-01 -4.961022e-04
2.616500e-01 -4.541378e-04
2.625000e-01 -4.126828e-04
2.633500e-01 -3.719632e-04
2.642000e-01 -3.321850e-04
2.650500e-01 -2.935338e-04
2.659000e-01 -2.561741e-04
2.667500e-01 -2.202498e-04
2.676000e-01 -1.858843e-04
2.684500e-01 -1.531806e-04
2.693000e-01 -1.222221e-04
2.701500e-01 -9.307359e-05
2.710000e-01 -6.578126e-05
2.718500e-01 -4.037462e-05
2.727000e-01 -1.686690e-05
2.735500e-01 4.743576e-06
2.744000e-01 2.447224e-05
2.752500e-01 4.234707e-05
2.761000e-01 5.840756e-05
2.769500e-01 7.270301e-05
2.778000e-01 8.529171e-05
2.786500e-01 9.623967e-05
2.795000e-01 1.056191e-04
2.803500e-01 1.135077e-04
2.812000e-01 1.199876e-04
2.820500e-01 1.251439e-04
2.829000e-01 1.290640e-04
2.837500e-01 1.318368e-04
2.846000e-01 1.335515e-04
2.854500e-01 1.342974e-04
2.863000e-01 1.341626e-04
2.871500e-01 1.332338e-04
2.880000e-01 1.315956e-04
2.888500e-01 1.293301e-04
2.897000e-01 1.265164e-04
2.905500e-01 1.232302e-04
2.914000e-01 1.195436e-04
2.922500e-01 1.155250e-04
2.931000e-01 1.112385e-04
2.939500e-01 1.067445e-04
2.948000e-01 1.020987e-04
2.956500e-01 9.735305e-05
2.965000e-01 9.255492e-05
2.973500e-01 8.774760e-05
2.982000e-01 8.297017e-05
2.990500e-01 7.825767e-05
2.999000e-01 7.364139e-05
3.007500e-01 6.914850e-05
3.016000e-01 6.480281e-05
3.024500e-01 6.062451e-05
3.033000e-01 5.663052e-05
3.041500e-01 5.283473e-05
3.050000e-01 4.924802e-05
3.058500e-01 4.587872e-05
3.067000e-01 4.273257e-05
3.075500e-01 3.981299e-05
3.084000e-01 3.712142e-05
3.092500e-01 3.465726e-05
3.101000e-01 3.241837e-05
3.109500e-01 3.040091e-05
3.118000e-01 2.859976e-05
3.126500e-01 2.700863e-05
3.135000e-01 2.562013e-05
3.143500e-01 2.442600e-05
3.152000e-01 2.341725e-05
3.160500e-01 2.258416e-05
3.169000e-01 2.191655e-05
3.177500e-01 2.140384e-05
3.186000e-01 2.103509e-05
3.194500e-01 2.079913e-05
3.203000e-01 2.068463e-05
3.211500e-01 2.068017e-05
3.220000e-01 2.077431e-05
3.228500e-01 2.095561e-05
3.237000e-01 2.121275e-05
3.245500e-01 2.153449e-05
3.254000e-01 2.190980e-05
3.262500e-01 2.232790e-05
3.271000e-01 2.277822e-05
3.279500e-01 2.325056e-05
3.288000e-01 2.373506e-05
3.296500e-01 2.422231e-05
3.305000e-01 2.470325e-05
3.313500e-01 2.516943e-05
3.322000e-01 2.561285e-05
3.330500e-01 2.602611e-05
3.339000e-01 2.640238e-05
3.347500e-01 2.673548e-05
3.356000e-01 2.701986e-05
3.364500e-01 2.725068e-05
3.373000e-01 2.742379e-05
3.381500e-01 2.753578e-05
3.390000e-01 2.758396e-05
3.398500e-01 2.756637e-05
3.407000e-01 2.748179e-05
3.415500e-01 2.732974e-05
3.424000e-01 2.711037e-05
3.432500e-01 2.682449e-05
3.441000e-01 2.647356e-05
3.449500e-01 2.605953e-05
3.458000e-01 2.558488e-05
3.466500e-01 2.505252e-05
3.475000e-01 2.446570e-05
3.483500e-01 2.382801e-05
3.492000e-01 2.314329e-05
3.500500e-01 2.241555e-05
3.509000e-01 2.164900e-05
3.517500e-01 2.084786e-05
3.526000e-01 2.001636e-05
3.534500e-01 1.915871e-05
3.543000e-01 1.827906e-05
3.551500e-01 1.738133e-05
3.560000e-01 1.646930e-05
3.568500e-01 1.554649e-05
3.577000e-01 1.461613e-05
3.585500e-01 1.368125e-05
3.594000e-01 1.274453e-05
3.602500e-01 1.180845e-05
3.611000e-01 1.087522e-05
3.619500e-01 9.946842e-06
3.628000e-01 9.025141e-06
3.636500e-01 8.111793e-06
3.645000e-01 7.208363e-06
3.653500e-01 6.316342e-06
3.662000e-01 5.437169e-06
3.670500e-01 4.572250e-06
3.679000e-01 3.723009e-06
3.687500e-01 2.890900e-06
3.696000e-01 2.077415e-06
3.704500e-01 1.284149e-06
3.713000e-01 5.127867e-07
3.721500e-01 -2.348620e-07
3.730000e-01 -9.568588e-07
3.738500e-01 -1.651110e-06
3.747000e-01 -2.315395e-06
3.755500e-01 -2.947362e-06
3.764000e-01 -3.544548e-06
3.772500e-01 -4.104425e-06
3.781000e-01 -4.624423e-06
3.789500e-01 -5.101985e-06
3.798000e-01 -5.534631e-06
3.806500e-01 -5.919975e-06
3.815000e-01 -6.255813e-06
3.823500e-01 -6.540140e-06
3.832000e-01 -6.771209e-06
3.840500e-01 -6.947559e-06
3.849000e-01 -7.068049e-06
3.857500e-01 -7.131878e-06
3.866000e-01 -7.138593e-06
3.874500e-01 -7.088130e-06
3.883000e-01 -6.980787e-06
3.891500e-01 -6.817254e-06
