-1.200000e-01 0.000000e+00
-1.191500e-01 0.000000e+00
-1.183000e-01 0.000000e+00
-1.174500e-01 0.000000e+00
-1.166000e-01 0.000000e+00
-1.157500e-01 0.000000e+00
-1.149000e-01 0.000000e+00
-1.140500e-01 0.000000e+00
-1.132000e-01 0.000000e+00
-1.123500e-01 3.694427e-32
-1.115000e-01 5.704636e-31
-1.106500e-01 4.478242e-30
-1.098000e-01 2.360049e-29
-1.089500e-01 9.265847e-29
-1.081000e-01 2.827893e-28
-1.072500e-01 6.697314e-28
-1.064000e-01 1.133283e-27
-1.055500e-01 7.610784e-28
-1.047000e-01 -3.403783e-27
-1.038500e-01 -1.827680e-26
-1.030000e-01 -5.645077e-26
-1.021500e-01 -1.351437e-25
-1.013000e-01 -2.674259e-25
-1.004500e-01 -4.389306e-25
-9.960000e-02 -5.645108e-25
-9.875000e-02 -4.274706e-25
-9.790000e-02 3.772977e-25
-9.705000e-02 2.445286e-24
-9.620000e-02 6.424784e-24
-9.535000e-02 1.263586e-23
-9.450001e-02 2.036783e-23
-9.365001e-02 2.688471e-23
-9.280001e-02 2.638395e-23
-9.195001e-02 9.469080e-24
-9.110001e-02 -3.596593e-23
-9.025000e-02 -1.213418e-22
-8.940001e-02 -2.505753e-22
-8.855000e-02 -4.097560e-22
-8.770001e-02 -5.549039e-22
-8.685000e-02 -6.018326e-22
-8.600000e-02 -4.248430e-22
-8.515000e-02 1.270454e-22
-8.430000e-02 1.187863e-21
-8.345000e-02 2.802128e-21
-8.260000e-02 4.826882e-21
-8.175001e-02 6.827618e-21
-8.090001e-02 8.004845e-21
-8.005001e-02 7.203693e-21
-7.920000e-02 3.065702e-21
-7.835001e-02 -5.629056e-21
-7.750000e-02 -1.941795e-20
-7.665001e-02 -3.746284e-20
-7.580000e-02 -5.684936e-20
-7.495001e-02 -7.211451e-20
-7.410000e-02 -7.531070e-20
-7.325000e-02 -5.692728e-20
-7.240000e-02 -7.905582e-21
-7.155000e-02 7.722938e-20
-7.070000e-02 1.964352e-19
-6.985001e-02 3.361613e-19
-6.900001e-02 4.684761e-19
-6.815000e-02 5.507962e-19
-6.730001e-02 5.297122e-19
-6.645000e-02 3.500218e-19
-6.560001e-02 -3.087965e-20
-6.475000e-02 -6.244934e-19
-6.390001e-02 -1.391628e-18
-6.305000e-02 -2.226484e-18
-6.220000e-02 -2.950457e-18
-6.135000e-02 -3.321881e-18
-6.050000e-02 -3.066635e-18
-5.965000e-02 -1.931320e-18
-5.880000e-02 2.442802e-19
-5.795000e-02 3.444966e-18
-5.710001e-02 7.404037e-18
-5.625001e-02 1.155435e-17
-5.540001e-02 1.502944e-17
-5.455001e-02 1.673500e-17
-5.370001e-02 1.550207e-17
-5.285000e-02 1.031931e-17
-5.200000e-02 6.220781e-19
-5.115000e-02 -1.340435e-17
-5.030000e-02 -3.056935e-17
-4.945000e-02 -4.854210e-17
-4.860000e-02 -6.391020e-17
-4.775000e-02 -7.248739e-17
-4.690000e-02 -6.989277e-17
-4.605000e-02 -5.237439e-17
-4.520001e-02 -1.779053e-17
-4.435001e-02 3.339832e-17
-4.350001e-02 9.732119e-17
-4.265001e-02 1.662919e-16
-4.180001e-02 2.290143e-16
-4.095000e-02 2.715465e-16
-4.010000e-02 2.790727e-16
-3.925000e-02 2.383875e-16
-3.840000e-02 1.408417e-16
-3.755000e-02 -1.466844e-17
-3.670000e-02 -2.191974e-16
-3.585000e-02 -4.523311e-16
-3.500000e-02 -6.824052e-16
-3.415000e-02 -8.687748e-16
-3.330000e-02 -9.662858e-16
-3.245001e-02 -9.317579e-16
-3.160001e-02 -7.318841e-16
-3.075001e-02 -3.515576e-16
-2.990001e-02 1.986719e-16
-2.905000e-02 8.774909e-16
-2.820000e-02 1.611485e-15
-2.735000e-02 2.298720e-15
-2.650000e-02 2.817824e-15
-2.565000e-02 3.042408e-15
-2.480000e-02 2.859755e-15
-2.395000e-02 2.191759e-15
-2.310000e-02 1.015379e-15
-2.225000e-02 -6.207632e-16
-2.140000e-02 -2.586980e-15
-2.055001e-02 -4.673352e-15
-1.970001e-02 -6.602806e-15
-1.885001e-02 -8.057027e-15
-1.800001e-02 -8.713992e-15
-1.715000e-02 -8.293881e-15
-1.630000e-02 -6.608381e-15
-1.545000e-02 -3.606787e-15
-1.460000e-02 5.882031e-16
-1.375000e-02 5.662156e-15
-1.290000e-02 1.111382e-14
-1.205000e-02 1.628680e-14
-1.120000e-02 2.042855e-14
-1.035000e-02 2.277323e-14
-9.500004e-03 2.264151e-14
-8.650005e-03 1.954665e-14
-7.800005e-03 1.329393e-14
-6.950006e-03 4.058942e-15
-6.100006e-03 -7.568532e-15
-5.250007e-03 -2.058663e-14
-4.400000e-03 -3.363619e-14
-3.550000e-03 -4.510961e-14
-2.700001e-03 -5.330805e-14
-1.850002e-03 -5.663509e-14
-1.000002e-03 -5.380782e-14
-1.500025e-04 -4.406263e-14
6.999969e-04 -2.732963e-14
1.549996e-03 -4.350777e-15
2.399996e-03 2.328054e-14
3.249995e-03 5.317343e-14
4.099995e-03 8.229368e-14
4.949994e-03 1.072135e-13
5.799994e-03 1.244416e-13
6.650001e-03 1.308049e-13
7.499993e-03 1.238490e-13
8.350000e-03 1.022114e-13
9.199992e-03 6.592640e-14
1.005000e-02 1.661745e-14
1.089999e-02 -4.245646e-14
1.175000e-02 -1.065236e-13
1.259999e-02 -1.695990e-13
1.345000e-02 -2.249502e-13
1.430000e-02 -2.657004e-13
1.515000e-02 -2.855213e-13
1.600000e-02 -2.793552e-13
1.684999e-02 -2.440966e-13
1.770000e-02 -1.791549e-13
1.854999e-02 -8.683191e-14
1.940000e-02 2.754792e-14
2.024999e-02 1.557941e-13
2.110000e-02 2.873089e-13
2.194999e-02 4.098354e-13
2.280000e-02 5.104517e-13
2.364999e-02 5.767379e-13
2.450000e-02 5.980177e-13
2.535000e-02 5.665657e-13
2.620000e-02 4.786552e-13
2.705000e-02 3.353329e-13
2.790000e-02 1.428264e-13
2.875000e-02 -8.749228e-14
2.959999e-02 -3.396131e-13
3.045000e-02 -5.938607e-13
3.129999e-02 -8.282748e-13
3.215000e-02 -1.020306e-12
3.299999e-02 -1.148698e-12
3.385000e-02 -1.195404e-12
3.469999e-02 -1.147378e-12
3.555000e-02 -9.980806e-13
3.639999e-02 -7.485644e-13
3.725000e-02 -4.080365e-13
3.810000e-02 6.180232e-15
3.895000e-02 4.693023e-13
3.980000e-02 9.503403e-13
4.065000e-02 1.413891e-12
4.150000e-02 1.822367e-12
4.234999e-02 2.138537e-12
4.320000e-02 2.328229e-12
4.404999e-02 2.363040e-12
4.490000e-02 2.222879e-12
4.574999e-02 1.898178e-12
4.660000e-02 1.391625e-12
4.744999e-02 7.192480e-13
4.830000e-02 -8.925924e-14
4.914999e-02 -9.910912e-13
5.000000e-02 -1.931823e-12
5.085000e-02 -2.847863e-12
5.170000e-02 -3.669851e-12
5.255000e-02 -4.326859e-12
5.339999e-02 -4.751255e-12
5.425000e-02 -4.883949e-12
5.509999e-02 -4.679690e-12
5.595000e-02 -4.112027e-12
5.679999e-02 -3.177522e-12
5.765000e-02 -1.898761e-12
5.849999e-02 -3.258115e-13
5.935000e-02 1.464227e-12
6.019999e-02 3.369733e-12
6.105000e-02 5.269198e-12
6.190000e-02 7.027855e-12
6.275000e-02 8.505977e-12
6.360000e-02 9.568373e-12
6.445000e-02 1.009447e-11
6.530000e-02 9.988232e-12
6.614999e-02 9.187247e-12
6.700000e-02 7.670109e-12
6.784999e-02 5.461641e-12
6.870000e-02 2.635264e-12
6.954999e-02 -6.876383e-13
7.040000e-02 -4.341568e-12
7.124999e-02 -8.123833e-12
7.210000e-02 -1.180426e-11
7.294999e-02 -1.513718e-11
7.380000e-02 -1.787518e-11
7.465000e-02 -1.978381e-11
7.550000e-02 -2.065663e-11
7.635000e-02 -2.032973e-11
7.720000e-02 -1.869509e-11
7.805000e-02 -1.571195e-11
7.889999e-02 -1.141563e-11
7.975000e-02 -5.922950e-12
8.059999e-02 5.660679e-13
8.145000e-02 7.770959e-12
8.229999e-02 1.533828e-11
8.315000e-02 2.285405e-11
8.399999e-02 2.986102e-11
8.485000e-02 3.588072e-11
8.570001e-02 4.043919e-11
8.655000e-02 4.309584e-11
8.740000e-02 4.347352e-11
8.825000e-02 4.128858e-11
8.910000e-02 3.637851e-11
8.995000e-02 2.872541e-11
9.080000e-02 1.847300e-11
9.164999e-02 5.935655e-12
9.250000e-02 -8.402249e-12
9.334999e-02 -2.389750e-11
9.420000e-02 -3.976985e-11
9.504999e-02 -5.513434e-11
9.590000e-02 -6.904272e-11
9.674999e-02 -8.053249e-11
9.760000e-02 -8.868110e-11
9.845001e-02 -9.266257e-11
9.930000e-02 -9.180356e-11
1.001500e-01 -8.563562e-11
1.010000e-01 -7.394087e-11
1.018500e-01 -5.678738e-11
1.027000e-01 -3.455277e-11
1.035500e-01 -7.932604e-12
1.044000e-01 2.206703e-11
1.052500e-01 5.415438e-11
1.061000e-01 8.679427e-11
1.069500e-01 1.182671e-10
1.078000e-01 1.467434e-10
1.086500e-01 1.703707e-10
1.095000e-01 1.873706e-10
1.103500e-01 1.961408e-10
1.112000e-01 1.953570e-10
1.120500e-01 1.840701e-10
1.129000e-01 1.617929e-10
1.137500e-01 1.285692e-10
1.146000e-01 8.502158e-11
1.154500e-01 3.237317e-11
1.163000e-01 -2.756144e-11
1.171500e-01 -9.241633e-11
1.180000e-01 -1.593470e-10
1.188500e-01 -2.251344e-10
1.197000e-01 -2.863167e-10
1.205500e-01 -3.393450e-10
1.214000e-01 -3.807553e-10
1.222500e-01 -4.073506e-10
1.231000e-01 -4.163849e-10
1.239500e-01 -4.057382e-10
1.248000e-01 -3.740764e-10
1.256500e-01 -3.209833e-10
1.265000e-01 -2.470608e-10
1.273500e-01 -1.539872e-10
1.282000e-01 -4.452781e-11
1.290500e-01 7.750429e-11
1.299000e-01 2.073402e-10
1.307500e-01 3.394006e-10
1.316000e-01 4.674888e-10
1.324500e-01 5.850300e-10
1.333000e-01 6.853452e-10
1.341500e-01 7.619508e-10
1.350000e-01 8.088741e-10
1.358500e-01 8.209651e-10
1.367000e-01 7.941973e-10
1.375500e-01 7.259376e-10
1.384000e-01 6.151705e-10
1.392500e-01 4.626681e-10
1.401000e-01 2.710895e-10
1.409500e-01 4.500444e-11
1.418000e-01 -2.091660e-10
1.426500e-01 -4.832940e-10
1.435000e-01 -7.677678e-10
1.443500e-01 -1.051800e-09
1.452000e-01 -1.323795e-09
1.460500e-01 -1.571779e-09
1.469000e-01 -1.783871e-09
1.477500e-01 -1.948776e-09
1.486000e-01 -2.056293e-09
1.494500e-01 -2.097803e-09
1.503000e-01 -2.066737e-09
1.511500e-01 -1.958991e-09
1.520000e-01 -1.773281e-09
1.528500e-01 -1.511418e-09
1.537000e-01 -1.178496e-09
1.545500e-01 -7.829846e-10
1.554000e-01 -3.367123e-10
1.562500e-01 1.452431e-10
1.571000e-01 6.447695e-10
1.579500e-01 1.141014e-09
1.588000e-01 1.610751e-09
1.596500e-01 2.028812e-09
1.605000e-01 2.368524e-09
1.613500e-01 2.602162e-09
1.622000e-01 2.701338e-09
1.630500e-01 2.637354e-09
1.639000e-01 2.381403e-09
1.647500e-01 1.904639e-09
1.656000e-01 1.178052e-09
1.664500e-01 1.721184e-10
1.673000e-01 -1.143815e-09
1.681500e-01 -2.802375e-09
1.690000e-01 -4.839383e-09
1.698500e-01 -7.295343e-09
1.707000e-01 -1.021735e-08
1.715500e-01 -1.366110e-08
1.724000e-01 -1.769365e-08
1.732500e-01 -2.239613e-08
1.741000e-01 -2.786710e-08
1.749500e-01 -3.422615e-08
1.758000e-01 -4.161804e-08
1.766500e-01 -5.021738e-08
1.775000e-01 -6.023333e-08
1.783500e-01 -7.191549e-08
1.792000e-01 -8.555975e-08
1.800500e-01 -1.015156e-07
1.809000e-01 -1.201929e-07
1.817500e-01 -1.420704e-07
1.826000e-01 -1.677050e-07
1.834500e-01 -1.977420e-07
1.843000e-01 -2.329253e-07
1.851500e-01 -2.741099e-07
1.860000e-01 -3.222755e-07
1.868500e-01 -3.785402e-07
1.877000e-01 -4.441781e-07
1.885500e-01 -5.206350e-07
1.894000e-01 -6.095486e-07
1.902500e-01 -7.127691e-07
1.911000e-01 -8.323851e-07
1.919500e-01 -9.707409e-07
1.928000e-01 -1.130470e-06
1.936500e-01 -1.314521e-06
1.945000e-01 -1.526189e-06
1.953500e-01 -1.769143e-06
1.962000e-01 -2.047464e-06
1.970500e-01 -2.365682e-06
1.979000e-01 -2.728802e-06
1.987500e-01 -3.142357e-06
1.996000e-01 -3.612434e-06
2.004500e-01 -4.145715e-06
2.013000e-01 -4.749515e-06
2.021500e-01 -5.431830e-06
2.030000e-01 -6.201354e-06
2.038500e-01 -7.067537e-06
2.047000e-01 -8.040613e-06
2.055500e-01 -9.131601e-06
2.064000e-01 -1.035237e-05
2.072500e-01 -1.171565e-05
2.081000e-01 -1.323500e-05
2.089500e-01 -1.492492e-05
2.098000e-01 -1.680070e-05
2.106500e-01 -1.887853e-05
2.115000e-01 -2.117543e-05
2.123500e-01 -2.370919e-05
2.132000e-01 -2.649836e-05
2.140500e-01 -2.956212e-05
2.149000e-01 -3.292028e-05
2.157500e-01 -3.659307e-05
2.166000e-01 -4.060106e-05
2.174500e-01 -4.496502e-05
2.183000e-01 -4.970572e-05
2.191500e-01 -5.484370e-05
2.200000e-01 -6.039910e-05
2.208500e-01 -6.639136e-05
2.217000e-01 -7.283888e-05
2.225500e-01 -7.975879e-05
2.234000e-01 -8.716661e-05
2.242500e-01 -9.507579e-05
2.251000e-01 -1.034973e-04
2.259500e-01 -1.124394e-04
2.268000e-01 -1.219067e-04
2.276500e-01 -1.319005e-04
2.285000e-01 -1.424173e-04
2.293500e-01 -1.534493e-04
2.302000e-01 -1.649829e-04
2.310500e-01 -1.769993e-04
2.319000e-01 -1.894729e-04
2.327500e-01 -2.023713e-04
2.336000e-01 -2.156553e-04
2.344500e-01 -2.292774e-04
2.353000e-01 -2.431821e-04
2.361500e-01 -2.573059e-04
2.370000e-01 -2.715758e-04
2.378500e-01 -2.859103e-04
2.387000e-01 -3.002185e-04
2.395500e-01 -3.144003e-04
2.404000e-01 -3.283467e-04
2.412500e-01 -3.419390e-04
2.421000e-01 -3.550506e-04
2.429500e-01 -3.675459e-04
2.438000e-01 -3.792815e-04
2.446500e-01 -3.901075e-04
2.455000e-01 -3.998668e-04
2.463500e-01 -4.083978e-04
2.472000e-01 -4.155336e-04
2.480500e-01 -4.211051e-04
2.489000e-01 -4.249417e-04
2.497500e-01 -4.268718e-04
2.506000e-01 -4.267263e-04
2.514500e-01 -4.243393e-04
2.523000e-01 -4.195499e-04
2.531500e-01 -4.122048e-04
2.540000e-01 -4.021597e-04
2.548500e-01 -3.892818e-04
2.557000e-01 -3.734520e-04
2.565500e-01 -3.545666e-04
2.574000e-01 -3.325397e-04
2.582500e-01 -3.073053e-04
2.591000e-01 -2.788189e-04
2.599500e-01 -2.470599e-04
2.608000e-01 -2.120327e-04
2.616500e-01 -1.737686e-04
2.625000e-01 -1.323272e-04
2.633500e-01 -8.779690e-05
2.642000e-01 -4.029675e-05
2.650500e-01 1.002419e-05
2.659000e-01 6.298575e-05
2.667500e-01 1.183769e-04
2.676000e-01 1.759566e-04
2.684500e-01 2.354538e-04
2.693000e-01 2.965697e-04
2.701500e-01 3.589779e-04
2.710000e-01 4.223275e-04
2.718500e-01 4.862446e-04
2.727000e-01 5.503349e-04
2.735500e-01 6.141870e-04
2.744000e-01 6.773749e-04
2.752500e-01 7.394622e-04
2.761000e-01 8.000055e-04
2.769500e-01 8.585575e-04
2.778000e-01 9.146731e-04
2.786500e-01 9.679112e-04
2.795000e-01 1.017840e-03
2.803500e-01 1.064042e-03
2.812000e-01 1.106118e-03
2.820500e-01 1.143689e-03
2.829000e-01 1.176402e-03
2.837500e-01 1.203939e-03
2.846000e-01 1.226007e-03
2.854500e-01 1.242359e-03
2.863000e-01 1.252780e-03
2.871500e-01 1.257102e-03
2.880000e-01 1.255202e-03
2.888500e-01 1.247002e-03
2.897000e-01 1.232473e-03
2.905500e-01 1.211633e-03
2.914000e-01 1.184551e-03
2.922500e-01 1.151345e-03
2.931000e-01 1.112181e-03
2.939500e-01 1.067272e-03
2.948000e-01 1.016876e-03
2.956500e-01 9.612949e-04
2.965000e-01 9.008714e-04
2.973500e-01 8.359854e-04
2.982000e-01 7.670515e-04
2.990500e-01 6.945140e-04
2.999000e-01 6.188440e-04
3.007500e-01 5.405340e-04
3.016000e-01 4.600945e-04
3.024500e-01 3.780481e-04
3.033000e-01 2.949257e-04
3.041500e-01 2.112610e-04
3.050000e-01 1.275862e-04
3.058500e-01 4.442589e-05
3.067000e-01 -3.770520e-05
3.075500e-01 -1.183085e-04
3.084000e-01 -1.969054e-04
3.092500e-01 -2.730408e-04
3.101000e-01 -3.462869e-04
3.109500e-01 -4.162469e-04
3.118000e-01 -4.825570e-04
3.126500e-01 -5.448899e-04
3.135000e-01 -6.029560e-04
3.143500e-01 -6.565053e-04
3.152000e-01 -7.053288e-04
3.160500e-01 -7.492594e-04
3.169000e-01 -7.881706e-04
3.177500e-01 -8.219790e-04
3.186000e-01 -8.506413e-04
3.194500e-01 -8.741542e-04
3.203000e-01 -8.925537e-04
3.211500e-01 -9.059127e-04
3.220000e-01 -9.143386e-04
3.228500e-01 -9.179725e-04
3.237000e-01 -9.169843e-04
3.245500e-01 -9.115730e-04
3.254000e-01 -9.019604e-04
3.262500e-01 -8.883910e-04
3.271000e-01 -8.711280e-04
3.279500e-01 -8.504489e-04
3.288000e-01 -8.266438e-04
3.296500e-01 -8.000119e-04
3.305000e-01 -7.708589e-04
3.313500e-01 -7.394928e-04
3.322000e-01 -7.062221e-04
3.330500e-01 -6.713529e-04
3.339000e-01 -6.351869e-04
3.347500e-01 -5.980178e-04
3.356000e-01 -5.601304e-04
3.364500e-01 -5.217982e-04
3.373000e-01 -4.832821e-04
3.381500e-01 -4.448281e-04
3.390000e-01 -4.066675e-04
3.398500e-01 -3.690147e-04
3.407000e-01 -3.320669e-04
3.415500e-01 -2.960037e-04
3.424000e-01 -2.609866e-04
3.432500e-01 -2.271591e-04
3.441000e-01 -1.946465e-04
3.449500e-01 -1.635561e-04
3.458000e-01 -1.339780e-04
3.466500e-01 -1.059851e-04
3.475000e-01 -7.963426e-05
3.483500e-01 -5.496638e-05
3.492000e-01 -3.200797e-05
3.500500e-01 -1.077143e-05
3.509000e-01 8.743634e-06
3.517500e-01 2.654967e-05
3.526000e-01 4.266989e-05
3.534500e-01 5.713766e-05
3.543000e-01 6.999509e-05
3.551500e-01 8.129227e-05
3.560000e-01 9.108622e-05
3.568500e-01 9.943979e-05
3.577000e-01 1.064210e-04
3.585500e-01 1.121018e-04
3.594000e-01 1.165576e-04
3.602500e-01 1.198662e-04
3.611000e-01 1.221071e-04
3.619500e-01 1.233607e-04
3.628000e-01 1.237081e-04
3.636500e-01 1.232299e-04
3.645000e-01 1.220057e-04
3.653500e-01 1.201143e-04
3.662000e-01 1.176324e-04
3.670500e-01 1.146345e-04
3.679000e-01 1.111928e-04
3.687500e-01 1.073763e-04
3.696000e-01 1.032513e-04
3.704500e-01 9.888043e-05
3.713000e-01 9.432282e-05
3.721500e-01 8.963400e-05
3.730000e-01 8.486574e-05
3.738500e-01 8.006574e-05
3.747000e-01 7.527789e-05
3.755500e-01 7.054208e-05
3.764000e-01 6.589430e-05
3.772500e-01 6.136657e-05
3.781000e-01 5.698715e-05
3.789500e-01 5.278040e-05
3.798000e-01 4.876717e-05
3.806500e-01 4.496480e-05
3.815000e-01 4.138714e-05
3.823500e-01 3.804496e-05
3.832000e-01 3.494586e-05
3.840500e-01 3.209470e-05
3.849000e-01 2.949366e-05
3.857500e-01 2.714243e-05
3.866000e-01 2.503841e-05
3.874500e-01 2.317705e-05
3.883000e-01 2.155191e-05
3.891500e-01 2.015496e-05
