-1.200000e-01 0.000000e+00
-1.191500e-01 0.000000e+00
-1.183000e-01 0.000000e+00
-1.174500e-01 0.000000e+00
-1.166000e-01 0.000000e+00
-1.157500e-01 0.000000e+00
-1.149000e-01 0.000000e+00
-1.140500e-01 0.000000e+00
-1.132000e-01 0.000000e+00
-1.123500e-01 -3.341126e-32
-1.115000e-01 -5.476453e-31
-1.106500e-01 -4.634293e-30
-1.098000e-01 -2.688765e-29
-1.089500e-01 -1.198218e-28
-1.081000e-01 -4.354612e-28
-1.072500e-01 -1.337143e-27
-1.064000e-01 -3.544348e-27
-1.055500e-01 -8.204361e-27
-1.047000e-01 -1.662238e-26
-1.038500e-01 -2.917426e-26
-1.030000e-01 -4.278645e-26
-1.021500e-01 -4.651780e-26
-1.013000e-01 -1.551614e-26
-1.004500e-01 9.479706e-26
-9.960000e-02 3.500504e-25
-9.875000e-02 8.268038e-25
-9.790000e-02 1.582376e-24
-9.705000e-02 2.597393e-24
-9.620000e-02 3.690575e-24
-9.535000e-02 4.418945e-24
-9.450001e-02 3.996810e-24
-9.365001e-02 1.289390e-24
-9.280001e-02 -5.046467e-24
-9.195001e-02 -1.620394e-23
-9.110001e-02 -3.261349e-23
-9.025000e-02 -5.311459e-23
-8.940001e-02 -7.406675e-23
-8.855000e-02 -8.869322e-23
-8.770001e-02 -8.706972e-23
-8.685000e-02 -5.721280e-23
-8.600000e-02 1.238346e-23
-8.515000e-02 1.287145e-22
-8.430000e-02 2.891960e-22
-8.345000e-02 4.766600e-22
-8.260000e-02 6.561330e-22
-8.175001e-02 7.754532e-22
-8.090001e-02 7.715742e-22
-8.005001e-02 5.833992e-22
-7.920000e-02 1.701777e-22
-7.835001e-02 -4.679216e-22
-7.750000e-02 -1.272847e-21
-7.665001e-02 -2.122578e-21
-7.580000e-02 -2.842738e-21
-7.495001e-02 -3.239531e-21
-7.410000e-02 -3.151568e-21
-7.325000e-02 -2.510060e-21
-7.240000e-02 -1.388882e-21
-7.155000e-02 -2.125087e-23
-7.070000e-02 1.238461e-21
-6.985001e-02 2.018277e-21
-6.900001e-02 2.087761e-21
-6.815000e-02 1.536417e-21
-6.730001e-02 9.092934e-22
-6.645000e-02 1.222878e-21
-6.560001e-02 3.791159e-21
-6.475000e-02 9.827834e-21
-6.390001e-02 1.985685e-20
-6.305000e-02 3.304969e-20
-6.220000e-02 4.669275e-20
-6.135000e-02 5.604101e-20
-6.050000e-02 5.480337e-20
-5.965000e-02 3.640492e-20
-5.880000e-02 -4.019810e-21
-5.795000e-02 -6.720880e-20
-5.710001e-02 -1.475038e-19
-5.625001e-02 -2.315025e-19
-5.540001e-02 -2.984350e-19
-5.455001e-02 -3.228669e-19
-5.370001e-02 -2.798682e-19
-5.285000e-02 -1.521176e-19
-5.200000e-02 6.234613e-20
-5.115000e-02 3.436533e-19
-5.030000e-02 6.471464e-19
-4.945000e-02 9.059473e-19
-4.860000e-02 1.040210e-18
-4.775000e-02 9.728065e-19
-4.690000e-02 6.494328e-19
-4.605000e-02 5.943189e-20
-4.520001e-02 -7.475775e-19
-4.435001e-02 -1.654417e-18
-4.350001e-02 -2.482602e-18
-4.265001e-02 -3.014133e-18
-4.180001e-02 -3.027762e-18
-4.095000e-02 -2.345256e-18
-4.010000e-02 -8.802374e-19
-3.925000e-02 1.319583e-18
-3.840000e-02 4.046080e-18
-3.755000e-02 6.927878e-18
-3.670000e-02 9.455384e-18
-3.585000e-02 1.103411e-17
-3.500000e-02 1.106258e-17
-3.415000e-02 9.027853e-18
-3.330000e-02 4.609369e-18
-3.245001e-02 -2.219724e-18
-3.160001e-02 -1.110571e-17
-3.075001e-02 -2.125524e-17
-2.990001e-02 -3.141940e-17
-2.905000e-02 -3.993832e-17
-2.820000e-02 -4.486372e-17
-2.735000e-02 -4.417362e-17
-2.650000e-02 -3.608270e-17
-2.565000e-02 -1.943358e-17
-2.480000e-02 5.872064e-18
-2.395000e-02 3.847411e-17
-2.310000e-02 7.528480e-17
-2.225000e-02 1.114627e-16
-2.140000e-02 1.407328e-16
-2.055001e-02 1.561168e-16
-1.970001e-02 1.510615e-16
-1.885001e-02 1.208539e-16
-1.800001e-02 6.410486e-17
-1.715000e-02 -1.601417e-17
-1.630000e-02 -1.111370e-16
-1.545000e-02 -2.080018e-16
-1.460000e-02 -2.898919e-16
-1.375000e-02 -3.392216e-16
-1.290000e-02 -3.409992e-16
-1.205000e-02 -2.866222e-16
-1.120000e-02 -1.772304e-16
-1.035000e-02 -2.574354e-17
-9.500004e-03 1.432141e-16
-8.650005e-03 2.960134e-16
-7.800005e-03 3.953868e-16
-6.950006e-03 4.079109e-16
-6.100006e-03 3.124567e-16
-5.250007e-03 1.079841e-16
-4.400000e-03 -1.811578e-16
-3.550000e-03 -5.041200e-16
-2.700001e-03 -7.877982e-16
-1.850002e-03 -9.467173e-16
-1.000002e-03 -8.977501e-16
-1.500025e-04 -5.777468e-16
6.999969e-04 3.875670e-17
1.549996e-03 9.250844e-16
2.399996e-03 1.994491e-15
3.249995e-03 3.101352e-15
4.099995e-03 4.052862e-15
4.949994e-03 4.631012e-15
5.799994e-03 4.622944e-15
6.650001e-03 3.856186e-15
7.499993e-03 2.234128e-15
8.350000e-03 -2.334156e-16
9.199992e-03 -3.409655e-15
1.005000e-02 -7.024545e-15
1.089999e-02 -1.068570e-14
1.175000e-02 -1.390765e-14
1.259999e-02 -1.615859e-14
1.345000e-02 -1.692146e-14
1.430000e-02 -1.576433e-14
1.515000e-02 -1.241282e-14
1.600000e-02 -6.815769e-15
1.684999e-02 8.055311e-16
1.770000e-02 9.934382e-15
1.854999e-02 1.977055e-14
1.940000e-02 2.928255e-14
2.024999e-02 3.730134e-14
2.110000e-02 4.265042e-14
2.194999e-02 4.430016e-14
2.280000e-02 4.152761e-14
2.364999e-02 3.405786e-14
2.450000e-02 2.216117e-14
2.535000e-02 6.682194e-15
2.620000e-02 -1.101461e-14
2.705000e-02 -2.918732e-14
2.790000e-02 -4.593529e-14
2.875000e-02 -5.946644e-14
2.959999e-02 -6.837209e-14
3.045000e-02 -7.185944e-14
3.129999e-02 -6.989373e-14
3.215000e-02 -6.321139e-14
3.299999e-02 -5.318664e-14
3.385000e-02 -4.156043e-14
3.469999e-02 -3.007001e-14
3.555000e-02 -2.004291e-14
3.639999e-02 -1.203578e-14
3.725000e-02 -5.600116e-15
3.810000e-02 7.572491e-16
3.895000e-02 9.381150e-15
3.980000e-02 2.304678e-14
4.065000e-02 4.435996e-14
4.150000e-02 7.507045e-14
4.234999e-02 1.154183e-13
4.320000e-02 1.636412e-13
4.404999e-02 2.157559e-13
4.490000e-02 2.656892e-13
4.574999e-02 3.057803e-13
4.660000e-02 3.276138e-13
4.744999e-02 3.230869e-13
4.830000e-02 2.855682e-13
4.914999e-02 2.109870e-13
5.000000e-02 9.869633e-14
5.085000e-02 -4.801654e-14
5.170000e-02 -2.218467e-13
5.255000e-02 -4.118330e-13
5.339999e-02 -6.041208e-13
5.425000e-02 -7.830341e-13
5.509999e-02 -9.323371e-13
5.595000e-02 -1.036551e-12
5.679999e-02 -1.082202e-12
5.765000e-02 -1.058904e-12
5.849999e-02 -9.601851e-13
5.935000e-02 -7.840429e-13
6.019999e-02 -5.331822e-13
6.105000e-02 -2.149634e-13
6.190000e-02 1.589297e-13
6.275000e-02 5.730553e-13
6.360000e-02 1.008962e-12
6.445000e-02 1.446047e-12
6.530000e-02 1.862442e-12
6.614999e-02 2.235830e-12
6.700000e-02 2.544131e-12
6.784999e-02 2.765974e-12
6.870000e-02 2.880993e-12
6.954999e-02 2.869981e-12
7.040000e-02 2.715066e-12
7.124999e-02 2.400071e-12
7.210000e-02 1.911306e-12
7.294999e-02 1.238944e-12
7.380000e-02 3.790954e-13
7.465000e-02 -6.634915e-13
7.550000e-02 -1.872328e-12
7.635000e-02 -3.216114e-12
7.720000e-02 -4.646261e-12
7.805000e-02 -6.095643e-12
7.889999e-02 -7.479164e-12
7.975000e-02 -8.696555e-12
8.059999e-02 -9.637513e-12
8.145000e-02 -1.018899e-11
8.229999e-02 -1.024403e-11
8.315000e-02 -9.711210e-12
8.399999e-02 -8.523799e-12
8.485000e-02 -6.647362e-12
8.570001e-02 -4.085130e-12
8.655000e-02 -8.805395e-13
8.740000e-02 2.883066e-12
8.825000e-02 7.085211e-12
8.910000e-02 1.157275e-11
8.995000e-02 1.616508e-11
9.080000e-02 2.065930e-11
9.164999e-02 2.483458e-11
9.250000e-02 2.845577e-11
9.334999e-02 3.127661e-11
9.420000e-02 3.304355e-11
9.504999e-02 3.350119e-11
9.590000e-02 3.240108e-11
9.674999e-02 2.951432e-11
9.760000e-02 2.464876e-11
9.845001e-02 1.767009e-11
9.930000e-02 8.525370e-12
1.001500e-01 -2.733110e-12
1.010000e-01 -1.592660e-11
1.018500e-01 -3.073423e-11
1.027000e-01 -4.668558e-11
1.035500e-01 -6.316349e-11
1.044000e-01 -7.941785e-11
1.052500e-01 -9.459042e-11
1.061000e-01 -1.077485e-10
1.069500e-01 -1.179261e-10
1.078000e-01 -1.241685e-10
1.086500e-01 -1.255785e-10
1.095000e-01 -1.213605e-10
1.103500e-01 -1.108620e-10
1.112000e-01 -9.360974e-11
1.120500e-01 -6.934180e-11
1.129000e-01 -3.803430e-11
1.137500e-01 7.578250e-14
1.146000e-01 4.447216e-11
1.154500e-01 9.434541e-11
1.163000e-01 1.485848e-10
1.171500e-01 2.057774e-10
1.180000e-01 2.642171e-10
1.188500e-01 3.219255e-10
1.197000e-01 3.766872e-10
1.205500e-01 4.261018e-10
1.214000e-01 4.676519e-10
1.222500e-01 4.987890e-10
1.231000e-01 5.170354e-10
1.239500e-01 5.201002e-10
1.248000e-01 5.060080e-10
1.256500e-01 4.732355e-10
1.265000e-01 4.208567e-10
1.273500e-01 3.486902e-10
1.282000e-01 2.574481e-10
1.290500e-01 1.488826e-10
1.299000e-01 2.592646e-11
1.307500e-01 -1.071734e-10
1.316000e-01 -2.447343e-10
1.324500e-01 -3.795279e-10
1.333000e-01 -5.026852e-10
1.341500e-01 -6.036170e-10
1.350000e-01 -6.699419e-10
1.358500e-01 -6.874223e-10
1.367000e-01 -6.398976e-10
1.375500e-01 -5.092027e-10
1.384000e-01 -2.750683e-10
1.392500e-01 8.502244e-11
1.401000e-01 5.960230e-10
1.409500e-01 1.285574e-09
1.418000e-01 2.184336e-09
1.426500e-01 3.326416e-09
1.435000e-01 4.749880e-09
1.443500e-01 6.497415e-09
1.452000e-01 8.617089e-09
1.460500e-01 1.116332e-08
1.469000e-01 1.419799e-08
1.477500e-01 1.779180e-08
1.486000e-01 2.202587e-08
1.494500e-01 2.699365e-08
1.503000e-01 3.280309e-08
1.511500e-01 3.957924e-08
1.520000e-01 4.746721e-08
1.528500e-01 5.663554e-08
1.537000e-01 6.727999e-08
1.545500e-01 7.962790e-08
1.554000e-01 9.394284e-08
1.562500e-01 1.105301e-07
1.571000e-01 1.297425e-07
1.579500e-01 1.519870e-07
1.588000e-01 1.777317e-07
1.596500e-01 2.075142e-07
1.605000e-01 2.419504e-07
1.613500e-01 2.817440e-07
1.622000e-01 3.276980e-07
1.630500e-01 3.807260e-07
1.639000e-01 4.418660e-07
1.647500e-01 5.122947e-07
1.656000e-01 5.933429e-07
1.664500e-01 6.865135e-07
1.673000e-01 7.934988e-07
1.681500e-01 9.162014e-07
1.690000e-01 1.056755e-06
1.698500e-01 1.217546e-06
1.707000e-01 1.401241e-06
1.715500e-01 1.610809e-06
1.724000e-01 1.849546e-06
1.732500e-01 2.121112e-06
1.741000e-01 2.429550e-06
1.749500e-01 2.779320e-06
1.758000e-01 3.175332e-06
1.766500e-01 3.622973e-06
1.775000e-01 4.128139e-06
1.783500e-01 4.697267e-06
1.792000e-01 5.337360e-06
1.800500e-01 6.056016e-06
1.809000e-01 6.861454e-06
1.817500e-01 7.762533e-06
1.826000e-01 8.768769e-06
1.834500e-01 9.890347e-06
1.843000e-01 1.113812e-05
1.851500e-01 1.252363e-05
1.860000e-01 1.405908e-05
1.868500e-01 1.575729e-05
1.877000e-01 1.763174e-05
1.885500e-01 1.969644e-05
1.894000e-01 2.196595e-05
1.902500e-01 2.445526e-05
1.911000e-01 2.717974e-05
1.919500e-01 3.015499e-05
1.928000e-01 3.339679e-05
1.936500e-01 3.692086e-05
1.945000e-01 4.074283e-05
1.953500e-01 4.487794e-05
1.962000e-01 4.934088e-05
1.970500e-01 5.414561e-05
1.979000e-01 5.930505e-05
1.987500e-01 6.483086e-05
1.996000e-01 7.073316e-05
2.004500e-01 7.702015e-05
2.013000e-01 8.369789e-05
2.021500e-01 9.076994e-05
2.030000e-01 9.823692e-05
2.038500e-01 1.060963e-04
2.047000e-01 1.143419e-04
2.055500e-01 1.229637e-04
2.064000e-01 1.319471e-04
2.072500e-01 1.412731e-04
2.081000e-01 1.509174e-04
2.089500e-01 1.608506e-04
2.098000e-01 1.710376e-04
2.106500e-01 1.814371e-04
2.115000e-01 1.920018e-04
2.123500e-01 2.026782e-04
2.132000e-01 2.134060e-04
2.140500e-01 2.241186e-04
2.149000e-01 2.347426e-04
2.157500e-01 2.451981e-04
2.166000e-01 2.553987e-04
2.174500e-01 2.652519e-04
2.183000e-01 2.746594e-04
2.191500e-01 2.835173e-04
2.200000e-01 2.917165e-04
2.208500e-01 2.991440e-04
2.217000e-01 3.056828e-04
2.225500e-01 3.112129e-04
2.234000e-01 3.156126e-04
2.242500e-01 3.187589e-04
2.251000e-01 3.205293e-04
2.259500e-01 3.208021e-04
2.268000e-01 3.194582e-04
2.276500e-01 3.163827e-04
2.285000e-01 3.114655e-04
2.293500e-01 3.046030e-04
2.302000e-01 2.957005e-04
2.310500e-01 2.846721e-04
2.319000e-01 2.714430e-04
2.327500e-01 2.559513e-04
2.336000e-01 2.381483e-04
2.344500e-01 2.180015e-04
2.353000e-01 1.954940e-04
2.361500e-01 1.706271e-04
2.370000e-01 1.434207e-04
2.378500e-01 1.139145e-04
2.387000e-01 8.216849e-05
2.395500e-01 4.826410e-05
2.404000e-01 1.230373e-05
2.412500e-01 -2.558822e-05
2.421000e-01 -6.526566e-05
2.429500e-01 -1.065615e-04
2.438000e-01 -1.492876e-04
2.446500e-01 -1.932353e-04
2.455000e-01 -2.381773e-04
2.463500e-01 -2.838684e-04
2.472000e-01 -3.300464e-04
2.480500e-01 -3.764350e-04
2.489000e-01 -4.227450e-04
2.497500e-01 -4.686764e-04
2.506000e-01 -5.139210e-04
2.514500e-01 -5.581648e-04
2.523000e-01 -6.010910e-04
2.531500e-01 -6.423822e-04
2.540000e-01 -6.817235e-04
2.548500e-01 -7.188062e-04
2.557000e-01 -7.533297e-04
2.565500e-01 -7.850053e-04
2.574000e-01 -8.135581e-04
2.582500e-01 -8.387314e-04
2.591000e-01 -8.602882e-04
2.599500e-01 -8.780147e-04
2.608000e-01 -8.917216e-04
2.616500e-01 -9.012481e-04
2.625000e-01 -9.064621e-04
2.633500e-01 -9.072628e-04
2.642000e-01 -9.035823e-04
2.650500e-01 -8.953861e-04
2.659000e-01 -8.826742e-04
2.667500e-01 -8.654821e-04
2.676000e-01 -8.438795e-04
2.684500e-01 -8.179711e-04
2.693000e-01 -7.878961e-04
2.701500e-01 -7.538259e-04
2.710000e-01 -7.159646e-04
2.718500e-01 -6.745455e-04
2.727000e-01 -6.298303e-04
2.735500e-01 -5.821061e-04
2.744000e-01 -5.316827e-04
2.752500e-01 -4.788910e-04
2.761000e-01 -4.240784e-04
2.769500e-01 -3.676062e-04
2.778000e-01 -3.098470e-04
2.786500e-01 -2.511798e-04
2.795000e-01 -1.919877e-04
2.803500e-01 -1.326537e-04
2.812000e-01 -7.355792e-05
2.820500e-01 -1.507351e-05
2.829000e-01 4.243654e-05
2.837500e-01 9.862245e-05
2.846000e-01 1.531502e-04
2.854500e-01 2.057054e-04
2.863000e-01 2.559947e-04
2.871500e-01 3.037486e-04
2.880000e-01 3.487234e-04
2.888500e-01 3.907028e-04
2.897000e-01 4.294991e-04
2.905500e-01 4.649544e-04
2.914000e-01 4.969414e-04
2.922500e-01 5.253633e-04
2.931000e-01 5.501537e-04
2.939500e-01 5.712777e-04
2.948000e-01 5.887295e-04
2.956500e-01 6.025321e-04
2.965000e-01 6.127366e-04
2.973500e-01 6.194200e-04
2.982000e-01 6.226841e-04
2.990500e-01 6.226532e-04
2.999000e-01 6.194724e-04
3.007500e-01 6.133052e-04
3.016000e-01 6.043309e-04
3.024500e-01 5.927426e-04
3.033000e-01 5.787449e-04
3.041500e-01 5.625512e-04
3.050000e-01 5.443810e-04
3.058500e-01 5.244580e-04
3.067000e-01 5.030078e-04
3.075500e-01 4.802551e-04
3.084000e-01 4.564220e-04
3.092500e-01 4.317263e-04
3.101000e-01 4.063792e-04
3.109500e-01 3.805835e-04
3.118000e-01 3.545335e-04
3.126500e-01 3.284118e-04
3.135000e-01 3.023894e-04
3.143500e-01 2.766250e-04
3.152000e-01 2.512636e-04
3.160500e-01 2.264365e-04
3.169000e-01 2.022608e-04
3.177500e-01 1.788394e-04
3.186000e-01 1.562610e-04
3.194500e-01 1.346005e-04
3.203000e-01 1.139192e-04
3.211500e-01 9.426537e-05
3.220000e-01 7.567486e-05
3.228500e-01 5.817181e-05
3.237000e-01 4.176937e-05
3.245500e-01 2.647099e-05
3.254000e-01 1.227066e-05
3.262500e-01 -8.454985e-07
3.271000e-01 -1.289864e-05
3.279500e-01 -2.391613e-05
3.288000e-01 -3.393050e-05
3.296500e-01 -4.297874e-05
3.305000e-01 -5.110098e-05
3.313500e-01 -5.834012e-05
3.322000e-01 -6.474052e-05
3.330500e-01 -7.034778e-05
3.339000e-01 -7.520768e-05
3.347500e-01 -7.936564e-05
3.356000e-01 -8.286638e-05
3.364500e-01 -8.575331e-05
3.373000e-01 -8.806809e-05
3.381500e-01 -8.985069e-05
3.390000e-01 -9.113865e-05
3.398500e-01 -9.196738e-05
3.407000e-01 -9.236968e-05
3.415500e-01 -9.237591e-05
3.424000e-01 -9.201404e-05
3.432500e-01 -9.130953e-05
3.441000e-01 -9.028552e-05
3.449500e-01 -8.896305e-05
3.458000e-01 -8.736100e-05
3.466500e-01 -8.549653e-05
3.475000e-01 -8.338518e-05
3.483500e-01 -8.104095e-05
3.492000e-01 -7.847689e-05
3.500500e-01 -7.570487e-05
3.509000e-01 -7.273615e-05
3.517500e-01 -6.958132e-05
3.526000e-01 -6.625074e-05
3.534500e-01 -6.275457e-05
3.543000e-01 -5.910288e-05
3.551500e-01 -5.530598e-05
3.560000e-01 -5.137442e-05
3.568500e-01 -4.731916e-05
3.577000e-01 -4.315161e-05
3.585500e-01 -3.888368e-05
3.594000e-01 -3.452817e-05
3.602500e-01 -3.009826e-05
3.611000e-01 -2.560794e-05
3.619500e-01 -2.107177e-05
3.628000e-01 -1.650504e-05
3.636500e-01 -1.192357e-05
3.645000e-01 -7.343745e-06
3.653500e-01 -2.782378e-06
3.662000e-01 1.743310e-06
3.670500e-01 6.215808e-06
3.679000e-01 1.061743e-05
3.687500e-01 1.493041e-05
3.696000e-01 1.913696e-05
3.704500e-01 2.321945e-05
3.713000e-01 2.716052e-05
3.721500e-01 3.094322e-05
3.730000e-01 3.455103e-05
3.738500e-01 3.796808e-05
3.747000e-01 4.117928e-05
3.755500e-01 4.417036e-05
3.764000e-01 4.692805e-05
3.772500e-01 4.944015e-05
3.781000e-01 5.169567e-05
3.789500e-01 5.368490e-05
3.798000e-01 5.539960e-05
3.806500e-01 5.683295e-05
3.815000e-01 5.797973e-05
3.823500e-01 5.883630e-05
3.832000e-01 5.940075e-05
3.840500e-01 5.967283e-05
3.849000e-01 5.965405e-05
3.857500e-01 5.934767e-05
3.866000e-01 5.875868e-05
3.874500e-01 5.789377e-05
3.883000e-01 5.676131e-05
3.891500e-01 5.537127e-05
