-1.200000e-01 0.000000e+00
-1.191500e-01 0.000000e+00
-1.183000e-01 0.000000e+00
-1.174500e-01 0.000000e+00
-1.166000e-01 0.000000e+00
-1.157500e-01 0.000000e+00
-1.149000e-01 -1.902751e-26
-1.140500e-01 -1.694545e-25
-1.132000e-01 -6.717419e-25
-1.123500e-01 -1.075092e-24
-1.115000e-01 3.275950e-24
-1.106500e-01 3.075999e-23
-1.098000e-01 1.318841e-22
-1.089500e-01 4.151702e-22
-1.081000e-01 1.069226e-21
-1.072500e-01 2.355773e-21
-1.064000e-01 4.537098e-21
-1.055500e-01 7.704314e-21
-1.047000e-01 1.150210e-20
-1.038500e-01 1.480638e-20
-1.030000e-01 1.549186e-20
-1.021500e-01 1.049387e-20
-1.013000e-01 -3.627608e-21
-1.004500e-01 -2.952156e-20
-9.960000e-02 -6.741571e-20
-9.875000e-02 -1.134857e-19
-9.790000e-02 -1.589814e-19
-9.705000e-02 -1.909561e-19
-9.620000e-02 -1.951548e-19
-9.535000e-02 -1.608787e-19
-9.450001e-02 -8.656406e-20
-9.365001e-02 1.623782e-20
-9.280001e-02 1.232882e-19
-9.195001e-02 2.046487e-19
-9.110001e-02 2.382825e-19
-9.025000e-02 2.269822e-19
-8.940001e-02 2.117129e-19
-8.855000e-02 2.721671e-19
-8.770001e-02 5.062163e-19
-8.685000e-02 9.853813e-19
-8.600000e-02 1.693417e-18
-8.515000e-02 2.467500e-18
-8.430000e-02 2.972003e-18
-8.345000e-02 2.737635e-18
-8.260000e-02 1.288467e-18
-8.175001e-02 -1.646608e-18
-8.090001e-02 -5.880241e-18
-8.005001e-02 -1.055523e-17
-7.920000e-02 -1.408944e-17
-7.835001e-02 -1.438997e-17
-7.750000e-02 -9.401984e-18
-7.665001e-02 2.039762e-18
-7.580000e-02 1.922457e-17
-7.495001e-02 3.875162e-17
-7.410000e-02 5.428910e-17
-7.325000e-02 5.729971e-17
-7.240000e-02 3.897196e-17
-7.155000e-02 -6.714961e-18
-7.070000e-02 -7.929634e-17
-6.985001e-02 -1.684559e-16
-6.900001e-02 -2.522868e-16
-6.815000e-02 -2.985358e-16
-6.730001e-02 -2.698360e-16
-6.645000e-02 -1.331112e-16
-6.560001e-02 1.278767e-16
-6.475000e-02 4.992595e-16
-6.390001e-02 9.267034e-16
-6.305000e-02 1.312211e-15
-6.220000e-02 1.521953e-15
-6.135000e-02 1.407406e-15
-6.050000e-02 8.392810e-16
-5.965000e-02 -2.498899e-16
-5.880000e-02 -1.822320e-15
-5.795000e-02 -3.701424e-15
-5.710001e-02 -5.559906e-15
-5.625001e-02 -6.939728e-15
-5.540001e-02 -7.309674e-15
-5.455001e-02 -6.159243e-15
-5.370001e-02 -3.118896e-15
-5.285000e-02 1.911800e-15
-5.200000e-02 8.653201e-15
-5.115000e-02 1.637943e-14
-5.030000e-02 2.392212e-14
-4.945000e-02 2.976085e-14
-4.860000e-02 3.220410e-14
-4.775000e-02 2.964800e-14
-4.690000e-02 2.088415e-14
-4.605000e-02 5.413385e-15
-4.520001e-02 -1.628543e-14
-4.435001e-02 -4.258399e-14
-4.350001e-02 -7.067546e-14
-4.265001e-02 -9.671810e-14
-4.180001e-02 -1.161623e-13
-4.095000e-02 -1.242474e-13
-4.010000e-02 -1.166321e-13
-3.925000e-02 -9.009909e-14
-3.840000e-02 -4.325802e-14
-3.755000e-02 2.284339e-14
-3.670000e-02 1.042947e-13
-3.585000e-02 1.941784e-13
-3.500000e-02 2.827858e-13
-3.415000e-02 3.582513e-13
-3.330000e-02 4.076185e-13
-3.245001e-02 4.183044e-13
-3.160001e-02 3.798545e-13
-3.075001e-02 2.858145e-13
-2.990001e-02 1.354749e-13
-2.905000e-02 -6.480128e-14
-2.820000e-02 -3.009654e-13
-2.735000e-02 -5.516439e-13
-2.650000e-02 -7.896307e-13
-2.565000e-02 -9.845130e-13
-2.480000e-02 -1.106246e-12
-2.395000e-02 -1.129275e-12
-2.310000e-02 -1.036646e-12
-2.225000e-02 -8.234362e-13
-2.140000e-02 -4.988229e-13
-2.055001e-02 -8.628892e-14
-1.970001e-02 3.783414e-13
-1.885001e-02 8.509365e-13
-1.800001e-02 1.284708e-12
-1.715000e-02 1.636653e-12
-1.630000e-02 1.873721e-12
-1.545000e-02 1.977591e-12
-1.460000e-02 1.947075e-12
-1.375000e-02 1.797535e-12
-1.290000e-02 1.557226e-12
-1.205000e-02 1.261075e-12
-1.120000e-02 9.429216e-13
-1.035000e-02 6.277009e-13
-9.500004e-03 3.251211e-13
-8.650005e-03 2.626924e-14
-7.800005e-03 -2.958938e-13
-6.950006e-03 -6.818673e-13
-6.100006e-03 -1.177259e-12
-5.250007e-03 -1.821960e-12
-4.400000e-03 -2.638606e-12
-3.550000e-03 -3.622274e-12
-2.700001e-03 -4.733304e-12
-1.850002e-03 -5.894606e-12
-1.000002e-03 -6.994214e-12
-1.500025e-04 -7.892935e-12
6.999969e-04 -8.436325e-12
1.549996e-03 -8.469539e-12
2.399996e-03 -7.853427e-12
3.249995e-03 -6.480109e-12
4.099995e-03 -4.286666e-12
4.949994e-03 -1.265815e-12
5.799994e-03 2.527026e-12
6.650001e-03 6.970584e-12
7.499993e-03 1.187856e-11
8.350000e-03 1.700444e-11
9.199992e-03 2.205026e-11
1.005000e-02 2.667924e-11
1.089999e-02 3.053222e-11
1.175000e-02 3.324725e-11
1.259999e-02 3.448151e-11
1.345000e-02 3.393409e-11
1.430000e-02 3.136756e-11
1.515000e-02 2.662643e-11
1.600000e-02 1.965026e-11
1.684999e-02 1.048052e-11
1.770000e-02 -7.394116e-13
1.854999e-02 -1.376985e-11
1.940000e-02 -2.828379e-11
2.024999e-02 -4.387646e-11
2.110000e-02 -6.007214e-11
2.194999e-02 -7.632619e-11
2.280000e-02 -9.202170e-11
2.364999e-02 -1.064621e-10
2.450000e-02 -1.188638e-10
2.535000e-02 -1.283540e-10
2.620000e-02 -1.339813e-10
2.705000e-02 -1.347422e-10
2.790000e-02 -1.296304e-10
2.875000e-02 -1.177058e-10
2.959999e-02 -9.818089e-11
3.045000e-02 -7.051575e-11
3.129999e-02 -3.451046e-11
3.215000e-02 9.616978e-12
3.299999e-02 6.117865e-11
3.385000e-02 1.189980e-10
3.469999e-02 1.814271e-10
3.555000e-02 2.463960e-10
3.639999e-02 3.114867e-10
3.725000e-02 3.740169e-10
3.810000e-02 4.311236e-10
3.895000e-02 4.798325e-10
3.980000e-02 5.171092e-10
4.065000e-02 5.398930e-10
4.150000e-02 5.451207e-10
4.234999e-02 5.297550e-10
4.320000e-02 4.908381e-10
4.404999e-02 4.255815e-10
4.490000e-02 3.315094e-10
4.574999e-02 2.066553e-10
4.660000e-02 4.980709e-11
4.744999e-02 -1.392198e-10
4.830000e-02 -3.593033e-10
4.914999e-02 -6.077627e-10
5.000000e-02 -8.801624e-10
5.085000e-02 -1.170187e-09
5.170000e-02 -1.469609e-09
5.255000e-02 -1.768336e-09
5.339999e-02 -2.054523e-09
5.425000e-02 -2.314731e-09
5.509999e-02 -2.534081e-09
5.595000e-02 -2.696379e-09
5.679999e-02 -2.784180e-09
5.765000e-02 -2.778765e-09
5.849999e-02 -2.660015e-09
5.935000e-02 -2.406206e-09
6.019999e-02 -1.993677e-09
6.105000e-02 -1.396445e-09
6.190000e-02 -5.857247e-10
6.275000e-02 4.706447e-10
6.360000e-02 1.808867e-09
6.445000e-02 3.469983e-09
6.530000e-02 5.500861e-09
6.614999e-02 7.955362e-09
6.700000e-02 1.089586e-08
6.784999e-02 1.439499e-08
6.870000e-02 1.853787e-08
6.954999e-02 2.342456e-08
7.040000e-02 2.917312e-08
7.124999e-02 3.592299e-08
7.210000e-02 4.383893e-08
7.294999e-02 5.311525e-08
7.380000e-02 6.398101e-08
7.465000e-02 7.670531e-08
7.550000e-02 9.160364e-08
7.635000e-02 1.090449e-07
7.720000e-02 1.294591e-07
7.805000e-02 1.533468e-07
7.889999e-02 1.812879e-07
7.975000e-02 2.139541e-07
8.059999e-02 2.521209e-07
8.145000e-02 2.966807e-07
8.229999e-02 3.486596e-07
8.315000e-02 4.092325e-07
8.399999e-02 4.797427e-07
8.485000e-02 5.617213e-07
8.570001e-02 6.569103e-07
8.655000e-02 7.672840e-07
8.740000e-02 8.950781e-07
8.825000e-02 1.042814e-06
8.910000e-02 1.213332e-06
8.995000e-02 1.409818e-06
9.080000e-02 1.635845e-06
9.164999e-02 1.895403e-06
9.250000e-02 2.192935e-06
9.334999e-02 2.533382e-06
9.420000e-02 2.922219e-06
9.504999e-02 3.365494e-06
9.590000e-02 3.869870e-06
9.674999e-02 4.442670e-06
9.760000e-02 5.091907e-06
9.845001e-02 5.826329e-06
9.930000e-02 6.655456e-06
1.001500e-01 7.589609e-06
1.010000e-01 8.639928e-06
1.018500e-01 9.818420e-06
1.027000e-01 1.113795e-05
1.035500e-01 1.261226e-05
1.044000e-01 1.425594e-05
1.052500e-01 1.608447e-05
1.061000e-01 1.811415e-05
1.069500e-01 2.036206e-05
1.078000e-01 2.284600e-05
1.086500e-01 2.558444e-05
1.095000e-01 2.859642e-05
1.103500e-01 3.190139e-05
1.112000e-01 3.551912e-05
1.120500e-01 3.946955e-05
1.129000e-01 4.377258e-05
1.137500e-01 4.844783e-05
1.146000e-01 5.351449e-05
1.154500e-01 5.899096e-05
1.163000e-01 6.489462e-05
1.171500e-01 7.124156e-05
1.180000e-01 7.804613e-05
1.188500e-01 8.532064e-05
1.197000e-01 9.307491e-05
1.205500e-01 1.013160e-04
1.214000e-01 1.100478e-04
1.222500e-01 1.192702e-04
1.231000e-01 1.289790e-04
1.239500e-01 1.391658e-04
1.248000e-01 1.498166e-04
1.256500e-01 1.609122e-04
1.265000e-01 1.724274e-04
1.273500e-01 1.843304e-04
1.282000e-01 1.965831e-04
1.290500e-01 2.091400e-04
1.299000e-01 2.219482e-04
1.307500e-01 2.349472e-04
1.316000e-01 2.480683e-04
1.324500e-01 2.612355e-04
1.333000e-01 2.743641e-04
1.341500e-01 2.873616e-04
1.350000e-01 3.001273e-04
1.358500e-01 3.125532e-04
1.367000e-01 3.245236e-04
1.375500e-01 3.359161e-04
1.384000e-01 3.466017e-04
1.392500e-01 3.564458e-04
1.401000e-01 3.653090e-04
1.409500e-01 3.730474e-04
1.418000e-01 3.795146e-04
1.426500e-01 3.845622e-04
1.435000e-01 3.880410e-04
1.443500e-01 3.898031e-04
1.452000e-01 3.897023e-04
1.460500e-01 3.875965e-04
1.469000e-01 3.833490e-04
1.477500e-01 3.768302e-04
1.486000e-01 3.679194e-04
1.494500e-01 3.565062e-04
1.503000e-01 3.424929e-04
1.511500e-01 3.257958e-04
1.520000e-01 3.063468e-04
1.528500e-01 2.840956e-04
1.537000e-01 2.590109e-04
1.545500e-01 2.310815e-04
1.554000e-01 2.003184e-04
1.562500e-01 1.667553e-04
1.571000e-01 1.304503e-04
1.579500e-01 9.148594e-05
1.588000e-01 4.996996e-05
1.596500e-01 6.035998e-06
1.605000e-01 -4.015658e-05
1.613500e-01 -8.842279e-05
1.622000e-01 -1.385527e-04
1.630500e-01 -1.903119e-04
1.639000e-01 -2.434427e-04
1.647500e-01 -2.976654e-04
1.656000e-01 -3.526798e-04
1.664500e-01 -4.081677e-04
1.673000e-01 -4.637939e-04
1.681500e-01 -5.192098e-04
1.690000e-01 -5.740553e-04
1.698500e-01 -6.279621e-04
1.707000e-01 -6.805565e-04
1.715500e-01 -7.314628e-04
1.724000e-01 -7.803064e-04
1.732500e-01 -8.267172e-04
1.741000e-01 -8.703338e-04
1.749500e-01 -9.108056e-04
1.758000e-01 -9.477978e-04
1.766500e-01 -9.809937e-04
1.775000e-01 -1.010098e-03
1.783500e-01 -1.034842e-03
1.792000e-01 -1.054982e-03
1.800500e-01 -1.070307e-03
1.809000e-01 -1.080638e-03
1.817500e-01 -1.085831e-03
1.826000e-01 -1.085782e-03
1.834500e-01 -1.080421e-03
1.843000e-01 -1.069720e-03
1.851500e-01 -1.053692e-03
1.860000e-01 -1.032388e-03
1.868500e-01 -1.005902e-03
1.877000e-01 -9.743678e-04
1.885500e-01 -9.379575e-04
1.894000e-01 -8.968810e-04
1.902500e-01 -8.513848e-04
1.911000e-01 -8.017488e-04
1.919500e-01 -7.482853e-04
1.928000e-01 -6.913340e-04
1.936500e-01 -6.312620e-04
1.945000e-01 -5.684568e-04
1.953500e-01 -5.033268e-04
1.962000e-01 -4.362942e-04
1.970500e-01 -3.677927e-04
1.979000e-01 -2.982641e-04
1.987500e-01 -2.281526e-04
1.996000e-01 -1.579024e-04
2.004500e-01 -8.795315e-05
2.013000e-01 -1.873622e-05
2.021500e-01 4.932936e-05
2.030000e-01 1.158400e-04
2.038500e-01 1.804108e-04
2.047000e-01 2.426794e-04
2.055500e-01 3.023076e-04
2.064000e-01 3.589853e-04
2.072500e-01 4.124313e-04
2.081000e-01 4.623955e-04
2.089500e-01 5.086611e-04
2.098000e-01 5.510451e-04
2.106500e-01 5.893988e-04
2.115000e-01 6.236088e-04
2.123500e-01 6.535967e-04
2.132000e-01 6.793184e-04
2.140500e-01 7.007642e-04
2.149000e-01 7.179567e-04
2.157500e-01 7.309507e-04
2.166000e-01 7.398304e-04
2.174500e-01 7.447088e-04
2.183000e-01 7.457246e-04
2.191500e-01 7.430402e-04
2.200000e-01 7.368395e-04
2.208500e-01 7.273256e-04
2.217000e-01 7.147170e-04
2.225500e-01 6.992466e-04
2.234000e-01 6.811577e-04
2.242500e-01 6.607016e-04
2.251000e-01 6.381355e-04
2.259500e-01 6.137188e-04
2.268000e-01 5.877120e-04
2.276500e-01 5.603732e-04
2.285000e-01 5.319563e-04
2.293500e-01 5.027090e-04
2.302000e-01 4.728707e-04
2.310500e-01 4.426709e-04
2.319000e-01 4.123276e-04
2.327500e-01 3.820462e-04
2.336000e-01 3.520180e-04
2.344500e-01 3.224196e-04
2.353000e-01 2.934125e-04
2.361500e-01 2.651417e-04
2.370000e-01 2.377367e-04
2.378500e-01 2.113102e-04
2.387000e-01 1.859591e-04
2.395500e-01 1.617640e-04
2.404000e-01 1.387904e-04
2.412500e-01 1.170886e-04
2.421000e-01 9.669473e-05
2.429500e-01 7.763138e-05
2.438000e-01 5.990841e-05
2.446500e-01 4.352392e-05
2.455000e-01 2.846534e-05
2.463500e-01 1.471027e-05
2.472000e-01 2.227620e-06
2.480500e-01 -9.021400e-06
2.489000e-01 -1.908206e-05
2.497500e-01 -2.800532e-05
2.506000e-01 -3.584665e-05
2.514500e-01 -4.266515e-05
2.523000e-01 -4.852268e-05
2.531500e-01 -5.348289e-05
2.540000e-01 -5.761054e-05
2.548500e-01 -6.097072e-05
2.557000e-01 -6.362824e-05
2.565500e-01 -6.564710e-05
2.574000e-01 -6.708975e-05
2.582500e-01 -6.801686e-05
2.591000e-01 -6.848684e-05
2.599500e-01 -6.855541e-05
2.608000e-01 -6.827564e-05
2.616500e-01 -6.769743e-05
2.625000e-01 -6.686745e-05
2.633500e-01 -6.582904e-05
2.642000e-01 -6.462224e-05
2.650500e-01 -6.328373e-05
2.659000e-01 -6.184677e-05
2.667500e-01 -6.034127e-05
2.676000e-01 -5.879407e-05
2.684500e-01 -5.722875e-05
2.693000e-01 -5.566586e-05
2.701500e-01 -5.412307e-05
2.710000e-01 -5.261529e-05
2.718500e-01 -5.115478e-05
2.727000e-01 -4.975132e-05
2.735500e-01 -4.841236e-05
2.744000e-01 -4.714320e-05
2.752500e-01 -4.594712e-05
2.761000e-01 -4.482560e-05
2.769500e-01 -4.377840e-05
2.778000e-01 -4.280380e-05
2.786500e-01 -4.189869e-05
2.795000e-01 -4.105879e-05
2.803500e-01 -4.027880e-05
2.812000e-01 -3.955244e-05
2.820500e-01 -3.887275e-05
2.829000e-01 -3.823218e-05
2.837500e-01 -3.762270e-05
2.846000e-01 -3.703607e-05
2.854500e-01 -3.646383e-05
2.863000e-01 -3.589759e-05
2.871500e-01 -3.532910e-05
2.880000e-01 -3.475040e-05
2.888500e-01 -3.415387e-05
2.897000e-01 -3.353255e-05
2.905500e-01 -3.287997e-05
2.914000e-01 -3.219042e-05
2.922500e-01 -3.145896e-05
2.931000e-01 -3.068149e-05
2.939500e-01 -2.985483e-05
2.948000e-01 -2.897670e-05
2.956500e-01 -2.804582e-05
2.965000e-01 -2.706186e-05
2.973500e-01 -2.602550e-05
2.982000e-01 -2.493835e-05
2.990500e-01 -2.380303e-05
2.999000e-01 -2.262299e-05
3.007500e-01 -2.140259e-05
3.016000e-01 -2.014692e-05
3.024500e-01 -1.886175e-05
3.033000e-01 -1.755347e-05
3.041500e-01 -1.622893e-05
3.050000e-01 -1.489536e-05
3.058500e-01 -1.356030e-05
3.067000e-01 -1.223139e-05
3.075500e-01 -1.091640e-05
3.084000e-01 -9.623008e-06
3.092500e-01 -8.358797e-06
3.101000e-01 -7.131135e-06
3.109500e-01 -5.947084e-06
3.118000e-01 -4.813346e-06
3.126500e-01 -3.736178e-06
3.135000e-01 -2.721321e-06
3.143500e-01 -1.773971e-06
3.152000e-01 -8.986969e-07
3.160500e-01 -9.943326e-08
3.169000e-01 6.205775e-07
3.177500e-01 1.258783e-06
3.186000e-01 1.813338e-06
3.194500e-01 2.283075e-06
3.203000e-01 2.667515e-06
3.211500e-01 2.966821e-06
3.220000e-01 3.181778e-06
3.228500e-01 3.313754e-06
3.237000e-01 3.364665e-06
3.245500e-01 3.336946e-06
3.254000e-01 3.233491e-06
3.262500e-01 3.057648e-06
3.271000e-01 2.813151e-06
3.279500e-01 2.504124e-06
3.288000e-01 2.134996e-06
3.296500e-01 1.710513e-06
3.305000e-01 1.235666e-06
3.313500e-01 7.156499e-07
3.322000e-01 1.558555e-07
3.330500e-01 -4.382020e-07
3.339000e-01 -1.060915e-06
3.347500e-01 -1.706597e-06
3.356000e-01 -2.369547e-06
3.364500e-01 -3.044051e-06
3.373000e-01 -3.724447e-06
3.381500e-01 -4.405142e-06
3.390000e-01 -5.080647e-06
3.398500e-01 -5.745615e-06
3.407000e-01 -6.394876e-06
3.415500e-01 -7.023488e-06
3.424000e-01 -7.626767e-06
3.432500e-01 -8.200323e-06
3.441000e-01 -8.740092e-06
3.449500e-01 -9.242380e-06
3.458000e-01 -9.703878e-06
3.466500e-01 -1.012170e-05
3.475000e-01 -1.049339e-05
3.483500e-01 -1.081696e-05
3.492000e-01 -1.109090e-05
3.500500e-01 -1.131420e-05
3.509000e-01 -1.148635e-05
3.517500e-01 -1.160737e-05
3.526000e-01 -1.167781e-05
3.534500e-01 -1.169874e-05
3.543000e-01 -1.167177e-05
3.551500e-01 -1.159897e-05
3.560000e-01 -1.148290e-05
3.568500e-01 -1.132656e-05
3.577000e-01 -1.113333e-05
3.585500e-01 -1.090694e-05
3.594000e-01 -1.065141e-05
3.602500e-01 -1.037100e-05
3.611000e-01 -1.007020e-05
3.619500e-01 -9.753628e-06
3.628000e-01 -9.426048e-06
3.636500e-01 -9.092289e-06
3.645000e-01 -8.757226e-06
3.653500e-01 -8.425744e-06
3.662000e-01 -8.102675e-06
3.670500e-01 -7.792782e-06
3.679000e-01 -7.500701e-06
3.687500e-01 -7.230919e-06
3.696000e-01 -6.987710e-06
3.704500e-01 -6.775136e-06
3.713000e-01 -6.597006e-06
3.721500e-01 -6.456865e-06
3.730000e-01 -6.357990e-06
3.738500e-01 -6.303385e-06
3.747000e-01 -6.295789e-06
3.755500e-01 -6.337679e-06
3.764000e-01 -6.431279e-06
3.772500e-01 -6.578563e-06
3.781000e-01 -6.781245e-06
3.789500e-01 -7.040796e-06
3.798000e-01 -7.358421e-06
3.806500e-01 -7.735048e-06
3.815000e-01 -8.171330e-06
3.823500e-01 -8.667620e-06
3.832000e-01 -9.223976e-06
3.840500e-01 -9.840138e-06
3.849000e-01 -1.051552e-05
3.857500e-01 -1.124921e-05
3.866000e-01 -1.203995e-05
3.874500e-01 -1.288613e-05
3.883000e-01 -1.378573e-05
3.891500e-01 -1.473635e-05
