-1.200000e-01 0.000000e+00
-1.191500e-01 0.000000e+00
-1.183000e-01 0.000000e+00
-1.174500e-01 0.000000e+00
-1.166000e-01 0.000000e+00
-1.157500e-01 0.000000e+00
-1.149000e-01 0.000000e+00
-1.140500e-01 4.093782e-27
-1.132000e-01 3.424760e-26
-1.123500e-01 8.680019e-26
-1.115000e-01 -3.512311e-25
-1.106500e-01 -4.284185e-24
-1.098000e-01 -2.237728e-23
-1.089500e-01 -8.206801e-23
-1.081000e-01 -2.362002e-22
-1.072500e-01 -5.550789e-22
-1.064000e-01 -1.069477e-21
-1.055500e-01 -1.621785e-21
-1.047000e-01 -1.600201e-21
-1.038500e-01 3.952531e-22
-1.030000e-01 6.758661e-21
-1.021500e-01 2.056101e-20
-1.013000e-01 4.415420e-20
-1.004500e-01 7.618728e-20
-9.960000e-02 1.069909e-19
-9.875000e-02 1.133300e-19
-9.790000e-02 5.509949e-20
-9.705000e-02 -1.217611e-19
-9.620000e-02 -4.709064e-19
-9.535000e-02 -1.015557e-18
-9.450001e-02 -1.702780e-18
-9.365001e-02 -2.350034e-18
-9.280001e-02 -2.602890e-18
-9.195001e-02 -1.933879e-18
-9.110001e-02 2.813984e-19
-9.025000e-02 4.579949e-18
-8.940001e-02 1.111028e-17
-8.855000e-02 1.924809e-17
-8.770001e-02 2.722046e-17
-8.685000e-02 3.189115e-17
-8.600000e-02 2.890229e-17
-8.515000e-02 1.336364e-17
-8.430000e-02 -1.879601e-17
-8.345000e-02 -6.886401e-17
-8.260000e-02 -1.330569e-16
-8.175001e-02 -2.004827e-16
-8.090001e-02 -2.521675e-16
-8.005001e-02 -2.620715e-16
-7.920000e-02 -2.008842e-16
-7.835001e-02 -4.294648e-17
-7.750000e-02 2.241359e-16
-7.665001e-02 5.886390e-16
-7.580000e-02 1.005152e-15
-7.495001e-02 1.389651e-15
-7.410000e-02 1.622801e-15
-7.325000e-02 1.564424e-15
-7.240000e-02 1.080288e-15
-7.155000e-02 7.958373e-17
-7.070000e-02 -1.442056e-15
-6.985001e-02 -3.362692e-15
-6.900001e-02 -5.408709e-15
-6.815000e-02 -7.156049e-15
-6.730001e-02 -8.068204e-15
-6.645000e-02 -7.575854e-15
-6.560001e-02 -5.194927e-15
-6.475000e-02 -6.695304e-16
-6.390001e-02 5.884168e-15
-6.305000e-02 1.386531e-14
-6.220000e-02 2.214267e-14
-6.135000e-02 2.910817e-14
-6.050000e-02 3.285013e-14
-5.965000e-02 3.144699e-14
-5.880000e-02 2.335717e-14
-5.795000e-02 7.853031e-15
-5.710001e-02 -1.457683e-14
-5.625001e-02 -4.194697e-14
-5.540001e-02 -7.070635e-14
-5.455001e-02 -9.595300e-14
-5.370001e-02 -1.119660e-13
-5.285000e-02 -1.130370e-13
-5.200000e-02 -9.452035e-14
-5.115000e-02 -5.396143e-14
-5.030000e-02 7.884509e-15
-4.945000e-02 8.635391e-14
-4.860000e-02 1.726961e-13
-4.775000e-02 2.545642e-13
-4.690000e-02 3.172383e-13
-4.605000e-02 3.455304e-13
-4.520001e-02 3.261916e-13
-4.435001e-02 2.505212e-13
-4.350001e-02 1.167869e-13
-4.265001e-02 -6.797940e-14
-4.180001e-02 -2.872230e-13
-4.095000e-02 -5.154626e-13
-4.010000e-02 -7.204001e-13
-3.925000e-02 -8.664879e-13
-3.840000e-02 -9.196596e-13
-3.755000e-02 -8.527012e-13
-3.670000e-02 -6.505519e-13
-3.585000e-02 -3.147292e-13
-3.500000e-02 1.339289e-13
-3.415000e-02 6.548724e-13
-3.330000e-02 1.190223e-12
-3.245001e-02 1.670003e-12
-3.160001e-02 2.019877e-12
-3.075001e-02 2.170656e-12
-2.990001e-02 2.068476e-12
-2.905000e-02 1.684298e-12
-2.820000e-02 1.021344e-12
-2.735000e-02 1.191731e-13
-2.650000e-02 -9.465482e-13
-2.565000e-02 -2.069046e-12
-2.480000e-02 -3.120060e-12
-2.395000e-02 -3.963284e-12
-2.310000e-02 -4.470242e-12
-2.225000e-02 -4.536773e-12
-2.140000e-02 -4.098061e-12
-2.055001e-02 -3.140212e-12
-1.970001e-02 -1.706689e-12
-1.885001e-02 1.014991e-13
-1.800001e-02 2.132236e-12
-1.715000e-02 4.194923e-12
-1.630000e-02 6.078074e-12
-1.545000e-02 7.570050e-12
-1.460000e-02 8.480748e-12
-1.375000e-02 8.661904e-12
-1.290000e-02 8.023931e-12
-1.205000e-02 6.547600e-12
-1.120000e-02 4.289515e-12
-1.035000e-02 1.380991e-12
-9.500004e-03 -1.979436e-12
-8.650005e-03 -5.539068e-12
-7.800005e-03 -9.008544e-12
-6.950006e-03 -1.208247e-11
-6.100006e-03 -1.446181e-11
-5.250007e-03 -1.587678e-11
-4.400000e-03 -1.610904e-11
-3.550000e-03 -1.501197e-11
-2.700001e-03 -1.252816e-11
-1.850002e-03 -8.702499e-12
-1.000002e-03 -3.690055e-12
-1.500025e-04 2.242861e-12
6.999969e-04 8.725543e-12
1.549996e-03 1.529859e-11
2.399996e-03 2.143883e-11
3.249995e-03 2.659309e-11
4.099995e-03 3.021948e-11
4.949994e-03 3.183375e-11
5.799994e-03 3.105732e-11
6.650001e-03 2.766278e-11
7.499993e-03 2.161217e-11
8.350000e-03 1.308339e-11
9.199992e-03 2.480763e-12
1.005000e-02 -9.573516e-12
1.089999e-02 -2.226815e-11
1.175000e-02 -3.465163e-11
1.259999e-02 -4.569844e-11
1.345000e-02 -5.438842e-11
1.430000e-02 -5.979290e-11
1.515000e-02 -6.116031e-11
1.600000e-02 -5.799322e-11
1.684999e-02 -5.010957e-11
1.770000e-02 -3.768087e-11
1.854999e-02 -2.124302e-11
1.940000e-02 -1.677488e-12
2.024999e-02 1.983695e-11
2.110000e-02 4.189839e-11
2.194999e-02 6.297594e-11
2.280000e-02 8.151602e-11
2.364999e-02 9.605218e-11
2.450000e-02 1.053091e-10
2.535000e-02 1.082935e-10
2.620000e-02 1.043652e-10
2.705000e-02 9.328581e-11
2.790000e-02 7.524290e-11
2.875000e-02 5.085093e-11
2.959999e-02 2.113164e-11
3.045000e-02 -1.252366e-11
3.129999e-02 -4.840703e-11
3.215000e-02 -8.456053e-11
3.299999e-02 -1.188564e-10
3.385000e-02 -1.490909e-10
3.469999e-02 -1.730920e-10
3.555000e-02 -1.888422e-10
3.639999e-02 -1.946105e-10
3.725000e-02 -1.890905e-10
3.810000e-02 -1.715332e-10
3.895000e-02 -1.418629e-10
3.980000e-02 -1.007605e-10
4.065000e-02 -4.970162e-11
4.150000e-02 9.063405e-12
4.234999e-02 7.259342e-11
4.320000e-02 1.374043e-10
4.404999e-02 1.996718e-10
4.490000e-02 2.554750e-10
4.574999e-02 3.010580e-10
4.660000e-02 3.330873e-10
4.744999e-02 3.488784e-10
4.830000e-02 3.465774e-10
4.914999e-02 3.252770e-10
5.000000e-02 2.850698e-10
5.085000e-02 2.270362e-10
5.170000e-02 1.531815e-10
5.255000e-02 6.633409e-11
5.339999e-02 -2.997900e-11
5.425000e-02 -1.316666e-10
5.509999e-02 -2.342093e-10
5.595000e-02 -3.327964e-10
5.679999e-02 -4.224669e-10
5.765000e-02 -4.982624e-10
5.849999e-02 -5.554032e-10
5.935000e-02 -5.894895e-10
6.019999e-02 -5.967343e-10
6.105000e-02 -5.742176e-10
6.190000e-02 -5.201455e-10
6.275000e-02 -4.340950e-10
6.360000e-02 -3.172140e-10
6.445000e-02 -1.723503e-10
6.530000e-02 -4.082481e-12
6.614999e-02 1.813615e-10
6.700000e-02 3.763067e-10
6.784999e-02 5.719470e-10
6.870000e-02 7.587601e-10
6.954999e-02 9.269877e-10
7.040000e-02 1.067156e-09
7.124999e-02 1.170589e-09
7.210000e-02 1.229889e-09
7.294999e-02 1.239345e-09
7.380000e-02 1.195251e-09
7.465000e-02 1.096121e-09
7.550000e-02 9.427886e-10
7.635000e-02 7.384097e-10
7.720000e-02 4.883589e-10
7.805000e-02 2.000547e-10
7.889999e-02 -1.172766e-10
7.975000e-02 -4.528833e-10
8.059999e-02 -7.947866e-10
8.145000e-02 -1.130090e-09
8.229999e-02 -1.445285e-09
8.315000e-02 -1.726535e-09
8.399999e-02 -1.959948e-09
8.485000e-02 -2.131817e-09
8.570001e-02 -2.228830e-09
8.655000e-02 -2.238250e-09
8.740000e-02 -2.148051e-09
8.825000e-02 -1.946984e-09
8.910000e-02 -1.624576e-09
8.995000e-02 -1.171010e-09
9.080000e-02 -5.768615e-10
9.164999e-02 1.673377e-10
9.250000e-02 1.071763e-09
9.334999e-02 2.148196e-09
9.420000e-02 3.411192e-09
9.504999e-02 4.879499e-09
9.590000e-02 6.577729e-09
9.674999e-02 8.538228e-09
9.760000e-02 1.080312e-08
9.845001e-02 1.342644e-08
9.930000e-02 1.647631e-08
1.001500e-01 2.003721e-08
1.010000e-01 2.421216e-08
1.018500e-01 2.912502e-08
1.027000e-01 3.492283e-08
1.035500e-01 4.177837e-08
1.044000e-01 4.989303e-08
1.052500e-01 5.950003e-08
1.061000e-01 7.086829e-08
1.069500e-01 8.430693e-08
1.078000e-01 1.001703e-07
1.086500e-01 1.188642e-07
1.095000e-01 1.408520e-07
1.103500e-01 1.666626e-07
1.112000e-01 1.968975e-07
1.120500e-01 2.322399e-07
1.129000e-01 2.734632e-07
1.137500e-01 3.214405e-07
1.146000e-01 3.771541e-07
1.154500e-01 4.417065e-07
1.163000e-01 5.163310e-07
1.171500e-01 6.024047e-07
1.180000e-01 7.014597e-07
1.188500e-01 8.151994e-07
1.197000e-01 9.455114e-07
1.205500e-01 1.094484e-06
1.214000e-01 1.264424e-06
1.222500e-01 1.457870e-06
1.231000e-01 1.677614e-06
1.239500e-01 1.926714e-06
1.248000e-01 2.208511e-06
1.256500e-01 2.526642e-06
1.265000e-01 2.885055e-06
1.273500e-01 3.288025e-06
1.282000e-01 3.740155e-06
1.290500e-01 4.246388e-06
1.299000e-01 4.812016e-06
1.307500e-01 5.442685e-06
1.316000e-01 6.144391e-06
1.324500e-01 6.923481e-06
1.333000e-01 7.786647e-06
1.341500e-01 8.740925e-06
1.350000e-01 9.793651e-06
1.358500e-01 1.095248e-05
1.367000e-01 1.222531e-05
1.375500e-01 1.362028e-05
1.384000e-01 1.514570e-05
1.392500e-01 1.680999e-05
1.401000e-01 1.862166e-05
1.409500e-01 2.058912e-05
1.418000e-01 2.272074e-05
1.426500e-01 2.502464e-05
1.435000e-01 2.750863e-05
1.443500e-01 3.018005e-05
1.452000e-01 3.304572e-05
1.460500e-01 3.611169e-05
1.469000e-01 3.938317e-05
1.477500e-01 4.286427e-05
1.486000e-01 4.655798e-05
1.494500e-01 5.046578e-05
1.503000e-01 5.458762e-05
1.511500e-01 5.892161e-05
1.520000e-01 6.346381e-05
1.528500e-01 6.820808e-05
1.537000e-01 7.314581e-05
1.545500e-01 7.826581e-05
1.554000e-01 8.355391e-05
1.562500e-01 8.899296e-05
1.571000e-01 9.456252e-05
1.579500e-01 1.002388e-04
1.588000e-01 1.059946e-04
1.596500e-01 1.117989e-04
1.605000e-01 1.176170e-04
1.613500e-01 1.234102e-04
1.622000e-01 1.291363e-04
1.630500e-01 1.347492e-04
1.639000e-01 1.401990e-04
1.647500e-01 1.454320e-04
1.656000e-01 1.503916e-04
1.664500e-01 1.550175e-04
1.673000e-01 1.592464e-04
1.681500e-01 1.630130e-04
1.690000e-01 1.662492e-04
1.698500e-01 1.688857e-04
1.707000e-01 1.708516e-04
1.715500e-01 1.720761e-04
1.724000e-01 1.724880e-04
1.732500e-01 1.720170e-04
1.741000e-01 1.705947e-04
1.749500e-01 1.681546e-04
1.758000e-01 1.646338e-04
1.766500e-01 1.599733e-04
1.775000e-01 1.541190e-04
1.783500e-01 1.470227e-04
1.792000e-01 1.386431e-04
1.800500e-01 1.289463e-04
1.809000e-01 1.179073e-04
1.817500e-01 1.055102e-04
1.826000e-01 9.174900e-05
1.834500e-01 7.662904e-05
1.843000e-01 6.016676e-05
1.851500e-01 4.239035e-05
1.860000e-01 2.334122e-05
1.868500e-01 3.072789e-06
1.877000e-01 -1.834817e-05
1.885500e-01 -4.084204e-05
1.894000e-01 -6.431647e-05
1.902500e-01 -8.866592e-05
1.911000e-01 -1.137729e-04
1.919500e-01 -1.395074e-04
1.928000e-01 -1.657289e-04
1.936500e-01 -1.922861e-04
1.945000e-01 -2.190187e-04
1.953500e-01 -2.457575e-04
1.962000e-01 -2.723268e-04
1.970500e-01 -2.985454e-04
1.979000e-01 -3.242276e-04
1.987500e-01 -3.491854e-04
1.996000e-01 -3.732299e-04
2.004500e-01 -3.961735e-04
2.013000e-01 -4.178308e-04
2.021500e-01 -4.380211e-04
2.030000e-01 -4.565704e-04
2.038500e-01 -4.733122e-04
2.047000e-01 -4.880906e-04
2.055500e-01 -5.007606e-04
2.064000e-01 -5.111908e-04
2.072500e-01 -5.192650e-04
2.081000e-01 -5.248822e-04
2.089500e-01 -5.279596e-04
2.098000e-01 -5.284321e-04
2.106500e-01 -5.262548e-04
2.115000e-01 -5.214020e-04
2.123500e-01 -5.138687e-04
2.132000e-01 -5.036717e-04
2.140500e-01 -4.908475e-04
2.149000e-01 -4.754539e-04
2.157500e-01 -4.575691e-04
2.166000e-01 -4.372909e-04
2.174500e-01 -4.147364e-04
2.183000e-01 -3.900407e-04
2.191500e-01 -3.633552e-04
2.200000e-01 -3.348469e-04
2.208500e-01 -3.046975e-04
2.217000e-01 -2.731004e-04
2.225500e-01 -2.402590e-04
2.234000e-01 -2.063861e-04
2.242500e-01 -1.717010e-04
2.251000e-01 -1.364279e-04
2.259500e-01 -1.007929e-04
2.268000e-01 -6.502307e-05
2.276500e-01 -2.934351e-05
2.285000e-01 6.023055e-06
2.293500e-01 4.086116e-05
2.302000e-01 7.496088e-05
2.310500e-01 1.081228e-04
2.319000e-01 1.401575e-04
2.327500e-01 1.708875e-04
2.336000e-01 2.001495e-04
2.344500e-01 2.277940e-04
2.353000e-01 2.536878e-04
2.361500e-01 2.777136e-04
2.370000e-01 2.997716e-04
2.378500e-01 3.197795e-04
2.387000e-01 3.376720e-04
2.395500e-01 3.534032e-04
2.404000e-01 3.669434e-04
2.412500e-01 3.782811e-04
2.421000e-01 3.874213e-04
2.429500e-01 3.943854e-04
2.438000e-01 3.992103e-04
2.446500e-01 4.019479e-04
2.455000e-01 4.026628e-04
2.463500e-01 4.014330e-04
2.472000e-01 3.983471e-04
2.480500e-01 3.935042e-04
2.489000e-01 3.870120e-04
2.497500e-01 3.789858e-04
2.506000e-01 3.695466e-04
2.514500e-01 3.588203e-04
2.523000e-01 3.469365e-04
2.531500e-01 3.340262e-04
2.540000e-01 3.202219e-04
2.548500e-01 3.056552e-04
2.557000e-01 2.904566e-04
2.565500e-01 2.747537e-04
2.574000e-01 2.586705e-04
2.582500e-01 2.423269e-04
2.591000e-01 2.258374e-04
2.599500e-01 2.093104e-04
2.608000e-01 1.928480e-04
2.616500e-01 1.765454e-04
2.625000e-01 1.604899e-04
2.633500e-01 1.447617e-04
2.642000e-01 1.294327e-04
2.650500e-01 1.145672e-04
2.659000e-01 1.002213e-04
2.667500e-01 8.644316e-05
2.676000e-01 7.327334e-05
2.684500e-01 6.074492e-05
2.693000e-01 4.888358e-05
2.701500e-01 3.770803e-05
2.710000e-01 2.723054e-05
2.718500e-01 1.745711e-05
2.727000e-01 8.387999e-06
2.735500e-01 1.821545e-08
2.744000e-01 -7.661864e-06
2.752500e-01 -1.466633e-05
2.761000e-01 -2.101284e-05
2.769500e-01 -2.672242e-05
2.778000e-01 -3.181900e-05
2.786500e-01 -3.632862e-05
2.795000e-01 -4.027939e-05
2.803500e-01 -4.370079e-05
2.812000e-01 -4.662325e-05
2.820500e-01 -4.907816e-05
2.829000e-01 -5.109695e-05
2.837500e-01 -5.271137e-05
2.846000e-01 -5.395254e-05
2.854500e-01 -5.485144e-05
2.863000e-01 -5.543802e-05
2.871500e-01 -5.574136e-05
2.880000e-01 -5.578953e-05
2.888500e-01 -5.560928e-05
2.897000e-01 -5.522611e-05
2.905500e-01 -5.466405e-05
2.914000e-01 -5.394584e-05
2.922500e-01 -5.309254e-05
2.931000e-01 -5.212386e-05
2.939500e-01 -5.105780e-05
2.948000e-01 -4.991108e-05
2.956500e-01 -4.869868e-05
2.965000e-01 -4.743437e-05
2.973500e-01 -4.613029e-05
2.982000e-01 -4.479750e-05
2.990500e-01 -4.344569e-05
2.999000e-01 -4.208351e-05
3.007500e-01 -4.071850e-05
3.016000e-01 -3.935730e-05
3.024500e-01 -3.800564e-05
3.033000e-01 -3.666844e-05
3.041500e-01 -3.534989e-05
3.050000e-01 -3.405340e-05
3.058500e-01 -3.278175e-05
3.067000e-01 -3.153718e-05
3.075500e-01 -3.032135e-05
3.084000e-01 -2.913547e-05
3.092500e-01 -2.798036e-05
3.101000e-01 -2.685658e-05
3.109500e-01 -2.576443e-05
3.118000e-01 -2.470403e-05
3.126500e-01 -2.367536e-05
3.135000e-01 -2.267832e-05
3.143500e-01 -2.171273e-05
3.152000e-01 -2.077827e-05
3.160500e-01 -1.987460e-05
3.169000e-01 -1.900127e-05
3.177500e-01 -1.815775e-05
3.186000e-01 -1.734345e-05
3.194500e-01 -1.655772e-05
3.203000e-01 -1.579987e-05
3.211500e-01 -1.506917e-05
3.220000e-01 -1.436493e-05
3.228500e-01 -1.368642e-05
3.237000e-01 -1.303293e-05
3.245500e-01 -1.240379e-05
3.254000e-01 -1.179831e-05
3.262500e-01 -1.121584e-05
3.271000e-01 -1.065567e-05
3.279500e-01 -1.011712e-05
3.288000e-01 -9.599495e-06
3.296500e-01 -9.102040e-06
3.305000e-01 -8.624028e-06
3.313500e-01 -8.164692e-06
3.322000e-01 -7.723283e-06
3.330500e-01 -7.298991e-06
3.339000e-01 -6.891054e-06
3.347500e-01 -6.498713e-06
3.356000e-01 -6.121232e-06
3.364500e-01 -5.757923e-06
3.373000e-01 -5.408132e-06
3.381500e-01 -5.071286e-06
3.390000e-01 -4.746857e-06
3.398500e-01 -4.434386e-06
3.407000e-01 -4.133476e-06
3.415500e-01 -3.843777e-06
3.424000e-01 -3.564997e-06
3.432500e-01 -3.296914e-06
3.441000e-01 -3.039306e-06
3.449500e-01 -2.792036e-06
3.458000e-01 -2.555029e-06
3.466500e-01 -2.328255e-06
3.475000e-01 -2.111785e-06
3.483500e-01 -1.905775e-06
3.492000e-01 -1.710459e-06
3.500500e-01 -1.526143e-06
3.509000e-01 -1.353205e-06
3.517500e-01 -1.192062e-06
3.526000e-01 -1.043159e-06
3.534500e-01 -9.069414e-07
3.543000e-01 -7.838453e-07
3.551500e-01 -6.742829e-07
3.560000e-01 -5.786495e-07
3.568500e-01 -4.973285e-07
3.577000e-01 -4.306951e-07
3.585500e-01 -3.791195e-07
3.594000e-01 -3.429685e-07
3.602500e-01 -3.225814e-07
3.611000e-01 -3.182735e-07
3.619500e-01 -3.302954e-07
3.628000e-01 -3.587949e-07
3.636500e-01 -4.038182e-07
3.645000e-01 -4.652717e-07
3.653500e-01 -5.429305e-07
3.662000e-01 -6.364255e-07
3.670500e-01 -7.452916e-07
3.679000e-01 -8.689553e-07
3.687500e-01 -1.006775e-06
3.696000e-01 -1.158047e-06
3.704500e-01 -1.322022e-06
3.713000e-01 -1.497885e-06
3.721500e-01 -1.684754e-06
3.730000e-01 -1.881666e-06
3.738500e-01 -2.087550e-06
3.747000e-01 -2.301221e-06
3.755500e-01 -2.521387e-06
3.764000e-01 -2.746650e-06
3.772500e-01 -2.975539e-06
3.781000e-01 -3.206531e-06
3.789500e-01 -3.438092e-06
3.798000e-01 -3.668709e-06
3.806500e-01 -3.896893e-06
3.815000e-01 -4.121226e-06
3.823500e-01 -4.340339e-06
3.832000e-01 -4.552905e-06
3.840500e-01 -4.757646e-06
3.849000e-01 -4.953338e-06
3.857500e-01 -5.138772e-06
3.866000e-01 -5.312795e-06
3.874500e-01 -5.474298e-06
3.883000e-01 -5.622241e-06
3.891500e-01 -5.755689e-06
