-1.200000e-01 0.000000e+00
-1.191500e-01 0.000000e+00
-1.183000e-01 0.000000e+00
-1.174500e-01 0.000000e+00
-1.166000e-01 0.000000e+00
-1.157500e-01 0.000000e+00
-1.149000e-01 0.000000e+00
-1.140500e-01 0.000000e+00
-1.132000e-01 0.000000e+00
-1.123500e-01 4.810813e-32
-1.115000e-01 8.620651e-31
-1.106500e-01 7.970524e-30
-1.098000e-01 5.045135e-29
-1.089500e-01 2.447364e-28
-1.081000e-01 9.653741e-28
-1.072500e-01 3.206123e-27
-1.064000e-01 9.153435e-27
-1.055500e-01 2.270788e-26
-1.047000e-01 4.900281e-26
-1.038500e-01 9.083390e-26
-1.030000e-01 1.387109e-25
-1.021500e-01 1.511732e-25
-1.013000e-01 2.527501e-26
-1.004500e-01 -4.335305e-25
-9.960000e-02 -1.515889e-24
-9.875000e-02 -3.539023e-24
-9.790000e-02 -6.637551e-24
-9.705000e-02 -1.035676e-23
-9.620000e-02 -1.305062e-23
-9.535000e-02 -1.122457e-23
-9.450001e-02 8.192738e-25
-9.365001e-02 3.042446e-23
-9.280001e-02 8.432791e-23
-9.195001e-02 1.640265e-22
-9.110001e-02 2.586603e-22
-9.025000e-02 3.365482e-22
-8.940001e-02 3.383722e-22
-8.855000e-02 1.771171e-22
-8.770001e-02 -2.486107e-22
-8.685000e-02 -1.021557e-21
-8.600000e-02 -2.150275e-21
-8.515000e-02 -3.495977e-21
-8.430000e-02 -4.698548e-21
-8.345000e-02 -5.132365e-21
-8.260000e-02 -3.934380e-21
-8.175001e-02 -1.498026e-22
-8.090001e-02 6.972078e-21
-8.005001e-02 1.753438e-20
-7.920000e-02 3.046140e-20
-7.835001e-02 4.301376e-20
-7.750000e-02 5.055603e-20
-7.665001e-02 4.682811e-20
-7.580000e-02 2.495427e-20
-7.495001e-02 -2.068261e-20
-7.410000e-02 -9.178882e-20
-7.325000e-02 -1.831232e-19
-7.240000e-02 -2.798211e-19
-7.155000e-02 -3.561286e-19
-7.070000e-02 -3.767331e-19
-6.985001e-02 -3.017170e-19
-6.900001e-02 -9.561038e-20
-6.815000e-02 2.599562e-19
-6.730001e-02 7.517872e-19
-6.645000e-02 1.322043e-18
-6.560001e-02 1.860873e-18
-6.475000e-02 2.209544e-18
-6.390001e-02 2.178167e-18
-6.305000e-02 1.580047e-18
-6.220000e-02 2.811599e-19
-6.135000e-02 -1.741320e-18
-6.050000e-02 -4.342421e-18
-5.965000e-02 -7.169712e-18
-5.880000e-02 -9.657442e-18
-5.795000e-02 -1.106962e-17
-5.710001e-02 -1.060134e-17
-5.625001e-02 -7.537016e-18
-5.540001e-02 -1.450408e-18
-5.455001e-02 7.583810e-18
-5.370001e-02 1.881096e-17
-5.285000e-02 3.070148e-17
-5.200000e-02 4.099108e-17
-5.115000e-02 4.689403e-17
-5.030000e-02 4.550270e-17
-4.945000e-02 3.435040e-17
-4.860000e-02 1.207317e-17
-4.775000e-02 -2.093488e-17
-4.690000e-02 -6.200865e-17
-4.605000e-02 -1.059892e-16
-4.520001e-02 -1.454232e-16
-4.435001e-02 -1.712720e-16
-4.350001e-02 -1.741411e-16
-4.265001e-02 -1.459431e-16
-4.180001e-02 -8.180290e-17
-4.095000e-02 1.808671e-17
-4.010000e-02 1.470150e-16
-3.925000e-02 2.910829e-16
-3.840000e-02 4.296383e-16
-3.755000e-02 5.370265e-16
-3.670000e-02 5.856812e-16
-3.585000e-02 5.503507e-16
-3.500000e-02 4.130118e-16
-3.415000e-02 1.677967e-16
-3.330000e-02 -1.748938e-16
-3.245001e-02 -5.859699e-16
-3.160001e-02 -1.017719e-15
-3.075001e-02 -1.406911e-15
-2.990001e-02 -1.681125e-15
-2.905000e-02 -1.767999e-15
-2.820000e-02 -1.606566e-15
-2.735000e-02 -1.159360e-15
-2.650000e-02 -4.235525e-16
-2.565000e-02 5.607798e-16
-2.480000e-02 1.707119e-15
-2.395000e-02 2.885197e-15
-2.310000e-02 3.930748e-15
-2.225000e-02 4.662284e-15
-2.140000e-02 4.903780e-15
-2.055001e-02 4.511100e-15
-1.970001e-02 3.399054e-15
-1.885001e-02 1.565323e-15
-1.800001e-02 -8.927115e-16
-1.715000e-02 -3.771897e-15
-1.630000e-02 -6.770727e-15
-1.545000e-02 -9.511625e-15
-1.460000e-02 -1.157755e-14
-1.375000e-02 -1.256041e-14
-1.290000e-02 -1.211671e-14
-1.205000e-02 -1.002420e-14
-1.120000e-02 -6.232259e-15
-1.035000e-02 -8.982971e-16
-9.500004e-03 5.596518e-15
-8.650005e-03 1.265755e-14
-7.800005e-03 1.951546e-14
-6.950006e-03 2.529288e-14
-6.100006e-03 2.909450e-14
-5.250007e-03 3.011331e-14
-4.400000e-03 2.774150e-14
-3.550000e-03 2.167426e-14
-2.700001e-03 1.199234e-14
-1.850002e-03 -7.887315e-16
-1.000002e-03 -1.571319e-14
-1.500025e-04 -3.142944e-14
6.999969e-04 -4.628596e-14
1.549996e-03 -5.847424e-14
2.399996e-03 -6.620883e-14
3.249995e-03 -6.792909e-14
4.099995e-03 -6.250314e-14
4.949994e-03 -4.941206e-14
5.799994e-03 -2.889177e-14
6.650001e-03 -2.011866e-15
7.499993e-03 2.932451e-14
8.350000e-03 6.246980e-14
9.199992e-03 9.421194e-14
1.005000e-02 1.210363e-13
1.089999e-02 1.394533e-13
1.175000e-02 1.463644e-13
1.259999e-02 1.394327e-13
1.345000e-02 1.174217e-13
1.430000e-02 8.045985e-14
1.515000e-02 3.019916e-14
1.600000e-02 -3.016474e-14
1.684999e-02 -9.602596e-14
1.770000e-02 -1.616599e-13
1.854999e-02 -2.206599e-13
1.940000e-02 -2.664897e-13
2.024999e-02 -2.931082e-13
2.110000e-02 -2.956109e-13
2.194999e-02 -2.708245e-13
2.280000e-02 -2.177924e-13
2.364999e-02 -1.380935e-13
2.450000e-02 -3.594647e-14
2.535000e-02 8.192602e-14
2.620000e-02 2.066804e-13
2.705000e-02 3.279643e-13
2.790000e-02 4.347174e-13
2.875000e-02 5.160962e-13
2.959999e-02 5.624483e-13
3.045000e-02 5.662450e-13
3.129999e-02 5.228924e-13
3.215000e-02 4.313359e-13
3.299999e-02 2.944009e-13
3.385000e-02 1.188272e-13
3.469999e-02 -8.501170e-14
3.555000e-02 -3.036938e-13
3.639999e-02 -5.215931e-13
3.725000e-02 -7.219229e-13
3.810000e-02 -8.879016e-13
3.895000e-02 -1.003954e-12
3.980000e-02 -1.056869e-12
4.065000e-02 -1.036845e-12
4.150000e-02 -9.383430e-13
4.234999e-02 -7.607372e-13
4.320000e-02 -5.086923e-13
4.404999e-02 -1.922809e-13
4.490000e-02 1.731884e-13
4.574999e-02 5.676320e-13
4.660000e-02 9.669529e-13
4.744999e-02 1.344103e-12
4.830000e-02 1.670446e-12
4.914999e-02 1.917409e-12
5.000000e-02 2.058368e-12
5.085000e-02 2.070718e-12
5.170000e-02 1.937989e-12
5.255000e-02 1.651880e-12
5.339999e-02 1.213999e-12
5.425000e-02 6.371183e-13
5.509999e-02 -5.426899e-14
5.595000e-02 -8.242667e-13
5.679999e-02 -1.626878e-12
5.765000e-02 -2.408333e-12
5.849999e-02 -3.110341e-12
5.935000e-02 -3.674127e-12
6.019999e-02 -4.044894e-12
6.105000e-02 -4.176429e-12
6.190000e-02 -4.035348e-12
6.275000e-02 -3.604678e-12
6.360000e-02 -2.886331e-12
6.445000e-02 -1.902268e-12
6.530000e-02 -6.941979e-13
6.614999e-02 6.781841e-13
6.700000e-02 2.140281e-12
6.784999e-02 3.606743e-12
6.870000e-02 4.986365e-12
6.954999e-02 6.187344e-12
7.040000e-02 7.122586e-12
7.124999e-02 7.714690e-12
7.210000e-02 7.900440e-12
7.294999e-02 7.634611e-12
7.380000e-02 6.893016e-12
7.465000e-02 5.674788e-12
7.550000e-02 4.003866e-12
7.635000e-02 1.929716e-12
7.720000e-02 -4.727954e-13
7.805000e-02 -3.104411e-12
7.889999e-02 -5.843573e-12
7.975000e-02 -8.549718e-12
8.059999e-02 -1.106798e-11
8.145000e-02 -1.323537e-11
8.229999e-02 -1.488854e-11
8.315000e-02 -1.587295e-11
8.399999e-02 -1.605306e-11
8.485000e-02 -1.532319e-11
8.570001e-02 -1.361817e-11
8.655000e-02 -1.092307e-11
8.740000e-02 -7.280790e-12
8.825000e-02 -2.796915e-12
8.910000e-02 2.359340e-12
8.995000e-02 7.958497e-12
9.080000e-02 1.371890e-11
9.164999e-02 1.931927e-11
9.250000e-02 2.441536e-11
9.334999e-02 2.865953e-11
9.420000e-02 3.172223e-11
9.504999e-02 3.331360e-11
9.590000e-02 3.320383e-11
9.674999e-02 3.124069e-11
9.760000e-02 2.736309e-11
9.845001e-02 2.160982e-11
9.930000e-02 1.412292e-11
1.001500e-01 5.145843e-12
1.010000e-01 -4.983360e-12
1.018500e-01 -1.584326e-11
1.027000e-01 -2.694396e-11
1.035500e-01 -3.774505e-11
1.044000e-01 -4.767614e-11
1.052500e-01 -5.615949e-11
1.061000e-01 -6.263468e-11
1.069500e-01 -6.658483e-11
1.078000e-01 -6.756411e-11
1.086500e-01 -6.522587e-11
1.095000e-01 -5.935037e-11
1.103500e-01 -4.987028e-11
1.112000e-01 -3.689211e-11
1.120500e-01 -2.071133e-11
1.129000e-01 -1.818673e-12
1.137500e-01 1.910428e-11
1.146000e-01 4.120167e-11
1.154500e-01 6.347264e-11
1.163000e-01 8.481265e-11
1.171500e-01 1.040647e-10
1.180000e-01 1.200783e-10
1.188500e-01 1.317719e-10
1.197000e-01 1.381946e-10
1.205500e-01 1.385833e-10
1.214000e-01 1.324126e-10
1.222500e-01 1.194319e-10
1.231000e-01 9.969141e-11
1.239500e-01 7.355344e-11
1.248000e-01 4.169117e-11
1.256500e-01 5.074918e-12
1.265000e-01 -3.505283e-11
1.273500e-01 -7.721115e-11
1.282000e-01 -1.197237e-10
1.290500e-01 -1.607685e-10
1.299000e-01 -1.984345e-10
1.307500e-01 -2.307869e-10
1.316000e-01 -2.559361e-10
1.324500e-01 -2.721154e-10
1.333000e-01 -2.777609e-10
1.341500e-01 -2.715942e-10
1.350000e-01 -2.527030e-10
1.358500e-01 -2.206153e-10
1.367000e-01 -1.753621e-10
1.375500e-01 -1.175227e-10
1.384000e-01 -4.824817e-11
1.392500e-01 3.074077e-11
1.401000e-01 1.171847e-10
1.409500e-01 2.083450e-10
1.418000e-01 3.010896e-10
1.426500e-01 3.920042e-10
1.435000e-01 4.775211e-10
1.443500e-01 5.540590e-10
1.452000e-01 6.181741e-10
1.460500e-01 6.667035e-10
1.469000e-01 6.969088e-10
1.477500e-01 7.066042e-10
1.486000e-01 6.942711e-10
1.494500e-01 6.591553e-10
1.503000e-01 6.013423e-10
1.511500e-01 5.218144e-10
1.520000e-01 4.224862e-10
1.528500e-01 3.062162e-10
1.537000e-01 1.768001e-10
1.545500e-01 3.894038e-11
1.554000e-01 -1.018059e-10
1.562500e-01 -2.390944e-10
1.571000e-01 -3.658873e-10
1.579500e-01 -4.745561e-10
1.588000e-01 -5.569954e-10
1.596500e-01 -6.047467e-10
1.605000e-01 -6.091139e-10
1.613500e-01 -5.612773e-10
1.622000e-01 -4.523657e-10
1.630500e-01 -2.735029e-10
1.639000e-01 -1.582420e-11
1.647500e-01 3.296024e-10
1.656000e-01 7.718750e-10
1.664500e-01 1.320481e-09
1.673000e-01 1.985563e-09
1.681500e-01 2.778313e-09
1.690000e-01 3.711369e-09
1.698500e-01 4.799457e-09
1.707000e-01 6.059924e-09
1.715500e-01 7.513493e-09
1.724000e-01 9.185113e-09
1.732500e-01 1.110475e-08
1.741000e-01 1.330843e-08
1.749500e-01 1.583942e-08
1.758000e-01 1.874933e-08
1.766500e-01 2.209958e-08
1.775000e-01 2.596289e-08
1.783500e-01 3.042500e-08
1.792000e-01 3.558659e-08
1.800500e-01 4.156540e-08
1.809000e-01 4.849844e-08
1.817500e-01 5.654497e-08
1.826000e-01 6.588927e-08
1.834500e-01 7.674375e-08
1.843000e-01 8.935267e-08
1.851500e-01 1.039960e-07
1.860000e-01 1.209936e-07
1.868500e-01 1.407101e-07
1.877000e-01 1.635608e-07
1.885500e-01 1.900157e-07
1.894000e-01 2.206080e-07
1.902500e-01 2.559379e-07
1.911000e-01 2.966839e-07
1.919500e-01 3.436070e-07
1.928000e-01 3.975627e-07
1.936500e-01 4.595084e-07
1.945000e-01 5.305130e-07
1.953500e-01 6.117695e-07
1.962000e-01 7.046066e-07
1.970500e-01 8.104950e-07
1.979000e-01 9.310697e-07
1.987500e-01 1.068131e-06
1.996000e-01 1.223670e-06
2.004500e-01 1.399864e-06
2.013000e-01 1.599113e-06
2.021500e-01 1.824028e-06
2.030000e-01 2.077461e-06
2.038500e-01 2.362504e-06
2.047000e-01 2.682523e-06
2.055500e-01 3.041131e-06
2.064000e-01 3.442235e-06
2.072500e-01 3.890006e-06
2.081000e-01 4.388929e-06
2.089500e-01 4.943759e-06
2.098000e-01 5.559547e-06
2.106500e-01 6.241632e-06
2.115000e-01 6.995616e-06
2.123500e-01 7.827380e-06
2.132000e-01 8.743025e-06
2.140500e-01 9.748898e-06
2.149000e-01 1.085149e-05
2.157500e-01 1.205746e-05
2.166000e-01 1.337357e-05
2.174500e-01 1.480661e-05
2.183000e-01 1.636335e-05
2.191500e-01 1.805045e-05
2.200000e-01 1.987442e-05
2.208500e-01 2.184149e-05
2.217000e-01 2.395750e-05
2.225500e-01 2.622781e-05
2.234000e-01 2.865715e-05
2.242500e-01 3.124954e-05
2.251000e-01 3.400808e-05
2.259500e-01 3.693483e-05
2.268000e-01 4.003067e-05
2.276500e-01 4.329507e-05
2.285000e-01 4.672601e-05
2.293500e-01 5.031975e-05
2.302000e-01 5.407063e-05
2.310500e-01 5.797094e-05
2.319000e-01 6.201084e-05
2.327500e-01 6.617793e-05
2.336000e-01 7.045748e-05
2.344500e-01 7.483192e-05
2.353000e-01 7.928097e-05
2.361500e-01 8.378142e-05
2.370000e-01 8.830702e-05
2.378500e-01 9.282854e-05
2.387000e-01 9.731370e-05
2.395500e-01 1.017270e-04
2.404000e-01 1.060303e-04
2.412500e-01 1.101822e-04
2.421000e-01 1.141384e-04
2.429500e-01 1.178524e-04
2.438000e-01 1.212750e-04
2.446500e-01 1.243550e-04
2.455000e-01 1.270394e-04
2.463500e-01 1.292735e-04
2.472000e-01 1.310022e-04
2.480500e-01 1.321689e-04
2.489000e-01 1.327180e-04
2.497500e-01 1.325936e-04
2.506000e-01 1.317413e-04
2.514500e-01 1.301083e-04
2.523000e-01 1.276442e-04
2.531500e-01 1.243018e-04
2.540000e-01 1.200378e-04
2.548500e-01 1.148128e-04
2.557000e-01 1.085932e-04
2.565500e-01 1.013507e-04
2.574000e-01 9.306412e-05
2.582500e-01 8.371907e-05
2.591000e-01 7.330890e-05
2.599500e-01 6.183566e-05
2.608000e-01 4.930985e-05
2.616500e-01 3.575150e-05
2.625000e-01 2.119019e-05
2.633500e-01 5.665046e-06
2.642000e-01 -1.077407e-05
2.650500e-01 -2.806789e-05
2.659000e-01 -4.614661e-05
2.667500e-01 -6.493066e-05
2.676000e-01 -8.433079e-05
2.684500e-01 -1.042488e-04
2.693000e-01 -1.245771e-04
2.701500e-01 -1.452007e-04
2.710000e-01 -1.659964e-04
2.718500e-01 -1.868350e-04
2.727000e-01 -2.075817e-04
2.735500e-01 -2.280970e-04
2.744000e-01 -2.482381e-04
2.752500e-01 -2.678598e-04
2.761000e-01 -2.868159e-04
2.769500e-01 -3.049611e-04
2.778000e-01 -3.221511e-04
2.786500e-01 -3.382454e-04
2.795000e-01 -3.531075e-04
2.803500e-01 -3.666075e-04
2.812000e-01 -3.786218e-04
2.820500e-01 -3.890361e-04
2.829000e-01 -3.977454e-04
2.837500e-01 -4.046562e-04
2.846000e-01 -4.096863e-04
2.854500e-01 -4.127671e-04
2.863000e-01 -4.138434e-04
2.871500e-01 -4.128751e-04
2.880000e-01 -4.098367e-04
2.888500e-01 -4.047182e-04
2.897000e-01 -3.975260e-04
2.905500e-01 -3.882821e-04
2.914000e-01 -3.770240e-04
2.922500e-01 -3.638052e-04
2.931000e-01 -3.486946e-04
2.939500e-01 -3.317755e-04
2.948000e-01 -3.131453e-04
2.956500e-01 -2.929150e-04
2.965000e-01 -2.712074e-04
2.973500e-01 -2.481562e-04
2.982000e-01 -2.239060e-04
2.990500e-01 -1.986088e-04
2.999000e-01 -1.724249e-04
3.007500e-01 -1.455201e-04
3.016000e-01 -1.180640e-04
3.024500e-01 -9.022963e-05
3.033000e-01 -6.219121e-05
3.041500e-01 -3.412243e-05
3.050000e-01 -6.195419e-06
3.058500e-01 2.142111e-05
3.067000e-01 4.856304e-05
3.075500e-01 7.507264e-05
3.084000e-01 1.007987e-04
3.092500e-01 1.255995e-04
3.101000e-01 1.493417e-04
3.109500e-01 1.719038e-04
3.118000e-01 1.931742e-04
3.126500e-01 2.130542e-04
3.135000e-01 2.314572e-04
3.143500e-01 2.483098e-04
3.152000e-01 2.635513e-04
3.160500e-01 2.771352e-04
3.169000e-01 2.890278e-04
3.177500e-01 2.992088e-04
3.186000e-01 3.076707e-04
3.194500e-01 3.144193e-04
3.203000e-01 3.194719e-04
3.211500e-01 3.228577e-04
3.220000e-01 3.246167e-04
3.228500e-01 3.247992e-04
3.237000e-01 3.234645e-04
3.245500e-01 3.206811e-04
3.254000e-01 3.165246e-04
3.262500e-01 3.110769e-04
3.271000e-01 3.044262e-04
3.279500e-01 2.966649e-04
3.288000e-01 2.878894e-04
3.296500e-01 2.781983e-04
3.305000e-01 2.676925e-04
3.313500e-01 2.564733e-04
3.322000e-01 2.446419e-04
3.330500e-01 2.322993e-04
3.339000e-01 2.195439e-04
3.347500e-01 2.064723e-04
3.356000e-01 1.931780e-04
3.364500e-01 1.797505e-04
3.373000e-01 1.662755e-04
3.381500e-01 1.528338e-04
3.390000e-01 1.395014e-04
3.398500e-01 1.263486e-04
3.407000e-01 1.134402e-04
3.415500e-01 1.008355e-04
3.424000e-01 8.858769e-05
3.432500e-01 7.674381e-05
3.441000e-01 6.534535e-05
3.449500e-01 5.442775e-05
3.458000e-01 4.402072e-05
3.466500e-01 3.414845e-05
3.475000e-01 2.482967e-05
3.483500e-01 1.607795e-05
3.492000e-01 7.902042e-06
3.500500e-01 3.059996e-07
3.509000e-01 -6.710415e-06
3.517500e-01 -1.315132e-05
3.526000e-01 -1.902458e-05
3.534500e-01 -2.434137e-05
3.543000e-01 -2.911573e-05
3.551500e-01 -3.336433e-05
3.560000e-01 -3.710602e-05
3.568500e-01 -4.036167e-05
3.577000e-01 -4.315369e-05
3.585500e-01 -4.550563e-05
3.594000e-01 -4.744226e-05
3.602500e-01 -4.898884e-05
3.611000e-01 -5.017110e-05
3.619500e-01 -5.101492e-05
3.628000e-01 -5.154622e-05
3.636500e-01 -5.179060e-05
3.645000e-01 -5.177315e-05
3.653500e-01 -5.151848e-05
3.662000e-01 -5.105035e-05
3.670500e-01 -5.039170e-05
3.679000e-01 -4.956449e-05
3.687500e-01 -4.858961e-05
3.696000e-01 -4.748683e-05
3.704500e-01 -4.627480e-05
3.713000e-01 -4.497084e-05
3.721500e-01 -4.359118e-05
3.730000e-01 -4.215073e-05
3.738500e-01 -4.066325e-05
3.747000e-01 -3.914122e-05
3.755500e-01 -3.759605e-05
3.764000e-01 -3.603796e-05
3.772500e-01 -3.447605e-05
3.781000e-01 -3.291848e-05
3.789500e-01 -3.137239e-05
3.798000e-01 -2.984402e-05
3.806500e-01 -2.833874e-05
3.815000e-01 -2.686114e-05
3.823500e-01 -2.541509e-05
3.832000e-01 -2.400380e-05
3.840500e-01 -2.262986e-05
3.849000e-01 -2.129546e-05
3.857500e-01 -2.000222e-05
3.866000e-01 -1.875146e-05
3.874500e-01 -1.754413e-05
3.883000e-01 -1.638094e-05
3.891500e-01 -1.526233e-05
