-1.200000e-01 0.000000e+00
-1.191500e-01 -9.326466e-13
-1.183000e-01 -2.453228e-12
-1.174500e-01 -3.895073e-12
-1.166000e-01 -4.648622e-12
-1.157500e-01 -4.572830e-12
-1.149000e-01 -4.243866e-12
-1.140500e-01 -4.893913e-12
-1.132000e-01 -8.006313e-12
-1.123500e-01 -1.467494e-11
-1.115000e-01 -2.495443e-11
-1.106500e-01 -3.747627e-11
-1.098000e-01 -4.955616e-11
-1.089500e-01 -5.787534e-11
-1.081000e-01 -5.961909e-11
-1.072500e-01 -5.376338e-11
-1.064000e-01 -4.207932e-11
-1.055500e-01 -2.943287e-11
-1.047000e-01 -2.310510e-11
-1.038500e-01 -3.112834e-11
-1.030000e-01 -5.995094e-11
-1.021500e-01 -1.120245e-10
-1.013000e-01 -1.840453e-10
-1.004500e-01 -2.665408e-10
-9.960000e-02 -3.452106e-10
-9.875000e-02 -4.040164e-10
-9.790000e-02 -4.295077e-10
-9.705000e-02 -4.154397e-10
-9.620000e-02 -3.665142e-10
-9.535000e-02 -3.000962e-10
-9.450001e-02 -2.451349e-10
-9.365001e-02 -2.381046e-10
-9.280001e-02 -3.165006e-10
-9.195001e-02 -5.110761e-10
-9.110001e-02 -8.384510e-10
-9.025000e-02 -1.295762e-09
-8.940001e-02 -1.858666e-09
-8.855000e-02 -2.483319e-09
-8.770001e-02 -3.111965e-09
-8.685000e-02 -3.680905e-09
-8.600000e-02 -4.128872e-09
-8.515000e-02 -4.403555e-09
-8.430000e-02 -4.464354e-09
-8.345000e-02 -4.280114e-09
-8.260000e-02 -3.821711e-09
-8.175001e-02 -3.050622e-09
-8.090001e-02 -1.905670e-09
-8.005001e-02 -2.906031e-10
-7.920000e-02 1.934470e-09
-7.835001e-02 4.956030e-09
-7.750000e-02 9.003080e-09
-7.665001e-02 1.433726e-08
-7.580000e-02 2.123851e-08
-7.495001e-02 2.999014e-08
-7.410000e-02 4.086669e-08
-7.325000e-02 5.412859e-08
-7.240000e-02 7.002558e-08
-7.155000e-02 8.881128e-08
-7.070000e-02 1.107664e-07
-6.985001e-02 1.362306e-07
-6.900001e-02 1.656376e-07
-6.815000e-02 1.995504e-07
-6.730001e-02 2.386924e-07
-6.645000e-02 2.839727e-07
-6.560001e-02 3.365030e-07
-6.475000e-02 3.976062e-07
-6.390001e-02 4.688245e-07
-6.305000e-02 5.519182e-07
-6.220000e-02 6.488784e-07
-6.135000e-02 7.619336e-07
-6.050000e-02 8.935773e-07
-5.965000e-02 1.046596e-06
-5.880000e-02 1.224114e-06
-5.795000e-02 1.429642e-06
-5.710001e-02 1.667127e-06
-5.625001e-02 1.941016e-06
-5.540001e-02 2.256301e-06
-5.455001e-02 2.618568e-06
-5.370001e-02 3.034040e-06
-5.285000e-02 3.509614e-06
-5.200000e-02 4.052899e-06
-5.115000e-02 4.672250e-06
-5.030000e-02 5.376804e-06
-4.945000e-02 6.176531e-06
-4.860000e-02 7.082292e-06
-4.775000e-02 8.105899e-06
-4.690000e-02 9.260198e-06
-4.605000e-02 1.055913e-05
-4.520001e-02 1.201782e-05
-4.435001e-02 1.365262e-05
-4.350001e-02 1.548120e-05
-4.265001e-02 1.752258e-05
-4.180001e-02 1.979710e-05
-4.095000e-02 2.232652e-05
-4.010000e-02 2.513390e-05
-3.925000e-02 2.824360e-05
-3.840000e-02 3.168128e-05
-3.755000e-02 3.547373e-05
-3.670000e-02 3.964882e-05
-3.585000e-02 4.423548e-05
-3.500000e-02 4.926330e-05
-3.415000e-02 5.476272e-05
-3.330000e-02 6.076456e-05
-3.245001e-02 6.729987e-05
-3.160001e-02 7.439989e-05
-3.075001e-02 8.209542e-05
-2.990001e-02 9.041667e-05
-2.905000e-02 9.939272e-05
-2.820000e-02 1.090515e-04
-2.735000e-02 1.194190e-04
-2.650000e-02 1.305188e-04
-2.565000e-02 1.423716e-04
-2.480000e-02 1.549948e-04
-2.395000e-02 1.684018e-04
-2.310000e-02 1.826012e-04
-2.225000e-02 1.975967e-04
-2.140000e-02 2.133854e-04
-2.055001e-02 2.299580e-04
-1.970001e-02 2.472980e-04
-1.885001e-02 2.653799e-04
-1.800001e-02 2.841699e-04
-1.715000e-02 3.036248e-04
-1.630000e-02 3.236905e-04
-1.545000e-02 3.443021e-04
-1.460000e-02 3.653842e-04
-1.375000e-02 3.868483e-04
-1.290000e-02 4.085945e-04
-1.205000e-02 4.305102e-04
-1.120000e-02 4.524693e-04
-1.035000e-02 4.743336e-04
-9.500004e-03 4.959511e-04
-8.650005e-03 5.171576e-04
-7.800005e-03 5.377750e-04
-6.950006e-03 5.576149e-04
-6.100006e-03 5.764759e-04
-5.250007e-03 5.941464e-04
-4.400000e-03 6.104050e-04
-3.550000e-03 6.250214e-04
-2.700001e-03 6.377596e-04
-1.850002e-03 6.483785e-04
-1.000002e-03 6.566321e-04
-1.500025e-04 6.622743e-04
6.999969e-04 6.650595e-04
1.549996e-03 6.647471e-04
2.399996e-03 6.611008e-04
3.249995e-03 6.538929e-04
4.099995e-03 6.429083e-04
4.949994e-03 6.279441e-04
5.799994e-03 6.088155e-04
6.650001e-03 5.853576e-04
7.499993e-03 5.574279e-04
8.350000e-03 5.249126e-04
9.199992e-03 4.877216e-04
1.005000e-02 4.458007e-04
1.089999e-02 3.991278e-04
1.175000e-02 3.477191e-04
1.259999e-02 2.916279e-04
1.345000e-02 2.309501e-04
1.430000e-02 1.658201e-04
1.515000e-02 9.641926e-05
1.600000e-02 2.296839e-05
1.684999e-02 -5.426588e-05
1.770000e-02 -1.349725e-04
1.854999e-02 -2.188003e-04
1.940000e-02 -3.053540e-04
2.024999e-02 -3.942001e-04
2.110000e-02 -4.848664e-04
2.194999e-02 -5.768465e-04
2.280000e-02 -6.696018e-04
2.364999e-02 -7.625651e-04
2.450000e-02 -8.551453e-04
2.535000e-02 -9.467331e-04
2.620000e-02 -1.036703e-03
2.705000e-02 -1.124422e-03
2.790000e-02 -1.209253e-03
2.875000e-02 -1.290561e-03
2.959999e-02 -1.367720e-03
3.045000e-02 -1.440119e-03
3.129999e-02 -1.507167e-03
3.215000e-02 -1.568301e-03
3.299999e-02 -1.622990e-03
3.385000e-02 -1.670741e-03
3.469999e-02 -1.711105e-03
3.555000e-02 -1.743683e-03
3.639999e-02 -1.768130e-03
3.725000e-02 -1.784156e-03
3.810000e-02 -1.791537e-03
3.895000e-02 -1.790111e-03
3.980000e-02 -1.779782e-03
4.065000e-02 -1.760527e-03
4.150000e-02 -1.732389e-03
4.234999e-02 -1.695484e-03
4.320000e-02 -1.649995e-03
4.404999e-02 -1.596176e-03
4.490000e-02 -1.534346e-03
4.574999e-02 -1.464888e-03
4.660000e-02 -1.388246e-03
4.744999e-02 -1.304918e-03
4.830000e-02 -1.215460e-03
4.914999e-02 -1.120467e-03
5.000000e-02 -1.020580e-03
5.085000e-02 -9.164753e-04
5.170000e-02 -8.088524e-04
5.255000e-02 -6.984356e-04
5.339999e-02 -5.859663e-04
5.425000e-02 -4.721894e-04
5.509999e-02 -3.578537e-04
5.595000e-02 -2.437002e-04
5.679999e-02 -1.304562e-04
5.765000e-02 -1.883027e-05
5.849999e-02 9.049333e-05
5.935000e-02 1.968654e-04
6.019999e-02 2.996685e-04
6.105000e-02 3.983309e-04
6.190000e-02 4.923261e-04
6.275000e-02 5.811767e-04
6.360000e-02 6.644573e-04
6.445000e-02 7.417981e-04
6.530000e-02 8.128880e-04
6.614999e-02 8.774769e-04
6.700000e-02 9.353684e-04
6.784999e-02 9.864279e-04
6.870000e-02 1.030580e-03
6.954999e-02 1.067804e-03
7.040000e-02 1.098136e-03
7.124999e-02 1.121663e-03
7.210000e-02 1.138524e-03
7.294999e-02 1.148900e-03
7.380000e-02 1.153018e-03
7.465000e-02 1.151143e-03
7.550000e-02 1.143574e-03
7.635000e-02 1.130640e-03
7.720000e-02 1.112696e-03
7.805000e-02 1.090118e-03
7.889999e-02 1.063299e-03
7.975000e-02 1.032643e-03
8.059999e-02 9.985650e-04
8.145000e-02 9.614801e-04
8.229999e-02 9.218041e-04
8.315000e-02 8.799492e-04
8.399999e-02 8.363191e-04
8.485000e-02 7.913062e-04
8.570001e-02 7.452884e-04
8.655000e-02 6.986281e-04
8.740000e-02 6.516675e-04
8.825000e-02 6.047291e-04
8.910000e-02 5.581125e-04
8.995000e-02 5.120934e-04
9.080000e-02 4.669242e-04
9.164999e-02 4.228312e-04
9.250000e-02 3.800159e-04
9.334999e-02 3.386550e-04
9.420000e-02 2.988996e-04
9.504999e-02 2.608772e-04
9.590000e-02 2.246913e-04
9.674999e-02 1.904222e-04
9.760000e-02 1.581304e-04
9.845001e-02 1.278542e-04
9.930000e-02 9.961446e-05
1.001500e-01 7.341385e-05
1.010000e-01 4.923912e-05
1.018500e-01 2.706279e-05
1.027000e-01 6.844051e-06
1.035500e-01 -1.146873e-05
1.044000e-01 -2.793759e-05
1.052500e-01 -4.263274e-05
1.061000e-01 -5.563170e-05
1.069500e-01 -6.701669e-05
1.078000e-01 -7.687508e-05
1.086500e-01 -8.529654e-05
1.095000e-01 -9.237254e-05
1.103500e-01 -9.819605e-05
1.112000e-01 -1.028593e-04
1.120500e-01 -1.064542e-04
1.129000e-01 -1.090711e-04
1.137500e-01 -1.107983e-04
1.146000e-01 -1.117217e-04
1.154500e-01 -1.119242e-04
1.163000e-01 -1.114851e-04
1.171500e-01 -1.104802e-04
1.180000e-01 -1.089821e-04
1.188500e-01 -1.070581e-04
1.197000e-01 -1.047719e-04
1.205500e-01 -1.021820e-04
1.214000e-01 -9.934358e-05
1.222500e-01 -9.630640e-05
1.231000e-01 -9.311614e-05
1.239500e-01 -8.981424e-05
1.248000e-01 -8.643813e-05
1.256500e-01 -8.302127e-05
1.265000e-01 -7.959352e-05
1.273500e-01 -7.618140e-05
1.282000e-01 -7.280802e-05
1.290500e-01 -6.949337e-05
1.299000e-01 -6.625470e-05
1.307500e-01 -6.310593e-05
1.316000e-01 -6.005889e-05
1.324500e-01 -5.712241e-05
1.333000e-01 -5.430330e-05
1.341500e-01 -5.160631e-05
1.350000e-01 -4.903445e-05
1.358500e-01 -4.658879e-05
1.367000e-01 -4.426913e-05
1.375500e-01 -4.207417e-05
1.384000e-01 -4.000132e-05
1.392500e-01 -3.804745e-05
1.401000e-01 -3.620847e-05
1.409500e-01 -3.447990e-05
1.418000e-01 -3.285678e-05
1.426500e-01 -3.133373e-05
1.435000e-01 -2.990540e-05
1.443500e-01 -2.856624e-05
1.452000e-01 -2.731083e-05
1.460500e-01 -2.613373e-05
1.469000e-01 -2.502979e-05
1.477500e-01 -2.399401e-05
1.486000e-01 -2.302170e-05
1.494500e-01 -2.210831e-05
1.503000e-01 -2.124974e-05
1.511500e-01 -2.044180e-05
1.520000e-01 -1.968084e-05
1.528500e-01 -1.896327e-05
1.537000e-01 -1.828575e-05
1.545500e-01 -1.764519e-05
1.554000e-01 -1.703850e-05
1.562500e-01 -1.646302e-05
1.571000e-01 -1.591624e-05
1.579500e-01 -1.539576e-05
1.588000e-01 -1.489959e-05
1.596500e-01 -1.442559e-05
1.605000e-01 -1.397190e-05
1.613500e-01 -1.353664e-05
1.622000e-01 -1.311790e-05
1.630500e-01 -1.271373e-05
1.639000e-01 -1.232229e-05
1.647500e-01 -1.194140e-05
1.656000e-01 -1.156898e-05
1.664500e-01 -1.120295e-05
1.673000e-01 -1.084118e-05
1.681500e-01 -1.048170e-05
1.690000e-01 -1.012264e-05
1.698500e-01 -9.762415e-06
1.707000e-01 -9.399644e-06
1.715500e-01 -9.033298e-06
1.724000e-01 -8.662511e-06
1.732500e-01 -8.286890e-06
1.741000e-01 -7.906123e-06
1.749500e-01 -7.520299e-06
1.758000e-01 -7.129655e-06
1.766500e-01 -6.734630e-06
1.775000e-01 -6.335717e-06
1.783500e-01 -5.933774e-06
1.792000e-01 -5.529609e-06
1.800500e-01 -5.124304e-06
1.809000e-01 -4.719070e-06
1.817500e-01 -4.315349e-06
1.826000e-01 -3.914689e-06
1.834500e-01 -3.518936e-06
1.843000e-01 -3.129907e-06
1.851500e-01 -2.749593e-06
1.860000e-01 -2.379960e-06
1.868500e-01 -2.022910e-06
1.877000e-01 -1.680242e-06
1.885500e-01 -1.353655e-06
1.894000e-01 -1.044516e-06
1.902500e-01 -7.539925e-07
1.911000e-01 -4.830748e-07
1.919500e-01 -2.323999e-07
1.928000e-01 -2.378444e-09
1.936500e-01 2.067689e-07
1.945000e-01 3.951009e-07
1.953500e-01 5.627689e-07
1.962000e-01 7.101139e-07
1.970500e-01 8.377083e-07
1.979000e-01 9.460961e-07
1.987500e-01 1.036049e-06
1.996000e-01 1.108295e-06
2.004500e-01 1.163657e-06
2.013000e-01 1.202940e-06
2.021500e-01 1.226929e-06
2.030000e-01 1.236418e-06
2.038500e-01 1.232201e-06
2.047000e-01 1.215091e-06
2.055500e-01 1.185905e-06
2.064000e-01 1.145529e-06
2.072500e-01 1.094909e-06
2.081000e-01 1.035014e-06
2.089500e-01 9.668100e-07
2.098000e-01 8.912892e-07
2.106500e-01 8.093269e-07
2.115000e-01 7.217481e-07
2.123500e-01 6.292229e-07
2.132000e-01 5.323111e-07
2.140500e-01 4.314466e-07
2.149000e-01 3.270134e-07
2.157500e-01 2.193926e-07
2.166000e-01 1.090340e-07
2.174500e-01 -3.494736e-09
2.183000e-01 -1.174481e-07
2.191500e-01 -2.318982e-07
2.200000e-01 -3.457661e-07
2.208500e-01 -4.578286e-07
2.217000e-01 -5.668231e-07
2.225500e-01 -6.714744e-07
2.234000e-01 -7.705720e-07
2.242500e-01 -8.630390e-07
2.251000e-01 -9.479368e-07
2.259500e-01 -1.024465e-06
2.268000e-01 -1.091957e-06
2.276500e-01 -1.149856e-06
2.285000e-01 -1.197699e-06
2.293500e-01 -1.235089e-06
2.302000e-01 -1.261697e-06
2.310500e-01 -1.277279e-06
2.319000e-01 -1.281699e-06
2.327500e-01 -1.274965e-06
2.336000e-01 -1.257246e-06
2.344500e-01 -1.228901e-06
2.353000e-01 -1.190480e-06
2.361500e-01 -1.142717e-06
2.370000e-01 -1.086540e-06
2.378500e-01 -1.022998e-06
2.387000e-01 -9.532743e-07
2.395500e-01 -8.786582e-07
2.404000e-01 -8.005018e-07
2.412500e-01 -7.202303e-07
2.421000e-01 -6.392974e-07
2.429500e-01 -5.592022e-07
2.438000e-01 -4.814413e-07
2.446500e-01 -4.074704e-07
2.455000e-01 -3.386980e-07
2.463500e-01 -2.764218e-07
2.472000e-01 -2.217780e-07
2.480500e-01 -1.757623e-07
2.489000e-01 -1.391595e-07
2.497500e-01 -1.125676e-07
2.506000e-01 -9.641032e-08
2.514500e-01 -9.097711e-08
2.523000e-01 -9.642525e-08
2.531500e-01 -1.128445e-07
2.540000e-01 -1.402767e-07
2.548500e-01 -1.787035e-07
2.557000e-01 -2.280725e-07
2.565500e-01 -2.882653e-07
2.574000e-01 -3.591134e-07
2.582500e-01 -4.403286e-07
2.591000e-01 -5.315101e-07
2.599500e-01 -6.321461e-07
2.608000e-01 -7.416010e-07
2.616500e-01 -8.591416e-07
2.625000e-01 -9.839472e-07
2.633500e-01 -1.115136e-06
2.642000e-01 -1.251825e-06
2.650500e-01 -1.393130e-06
2.659000e-01 -1.538205e-06
2.667500e-01 -1.686243e-06
2.676000e-01 -1.836484e-06
2.684500e-01 -1.988222e-06
2.693000e-01 -2.140754e-06
2.701500e-01 -2.293378e-06
2.710000e-01 -2.445345e-06
2.718500e-01 -2.595838e-06
2.727000e-01 -2.743925e-06
2.735500e-01 -2.888563e-06
2.744000e-01 -3.028565e-06
2.752500e-01 -3.162615e-06
2.761000e-01 -3.289285e-06
2.769500e-01 -3.407094e-06
2.778000e-01 -3.514509e-06
2.786500e-01 -3.610031e-06
2.795000e-01 -3.692211e-06
2.803500e-01 -3.759689e-06
2.812000e-01 -3.811199e-06
2.820500e-01 -3.845592e-06
2.829000e-01 -3.861794e-06
2.837500e-01 -3.858818e-06
2.846000e-01 -3.835725e-06
2.854500e-01 -3.791642e-06
2.863000e-01 -3.725755e-06
2.871500e-01 -3.637354e-06
2.880000e-01 -3.525862e-06
2.888500e-01 -3.390890e-06
2.897000e-01 -3.232301e-06
2.905500e-01 -3.050218e-06
2.914000e-01 -2.845057e-06
2.922500e-01 -2.617531e-06
2.931000e-01 -2.368618e-06
2.939500e-01 -2.099531e-06
2.948000e-01 -1.811664e-06
2.956500e-01 -1.506564e-06
2.965000e-01 -1.185905e-06
2.973500e-01 -8.514779e-07
2.982000e-01 -5.051873e-07
2.990500e-01 -1.490645e-07
2.999000e-01 2.147230e-07
3.007500e-01 5.838722e-07
3.016000e-01 9.559622e-07
3.024500e-01 1.328499e-06
3.033000e-01 1.698954e-06
3.041500e-01 2.064854e-06
3.050000e-01 2.423811e-06
3.058500e-01 2.773582e-06
3.067000e-01 3.112100e-06
3.075500e-01 3.437470e-06
3.084000e-01 3.747928e-06
3.092500e-01 4.041869e-06
3.101000e-01 4.317731e-06
3.109500e-01 4.574041e-06
3.118000e-01 4.809354e-06
3.126500e-01 5.022302e-06
3.135000e-01 5.211607e-06
3.143500e-01 5.376157e-06
3.152000e-01 5.515008e-06
3.160500e-01 5.627468e-06
3.169000e-01 5.713082e-06
3.177500e-01 5.771655e-06
3.186000e-01 5.803206e-06
3.194500e-01 5.807903e-06
3.203000e-01 5.786078e-06
3.211500e-01 5.738122e-06
3.220000e-01 5.664488e-06
3.228500e-01 5.565638e-06
3.237000e-01 5.442147e-06
3.245500e-01 5.294612e-06
3.254000e-01 5.123767e-06
3.262500e-01 4.930480e-06
3.271000e-01 4.715760e-06
3.279500e-01 4.480768e-06
3.288000e-01 4.226832e-06
3.296500e-01 3.955380e-06
3.305000e-01 3.667934e-06
3.313500e-01 3.366081e-06
3.322000e-01 3.051447e-06
3.330500e-01 2.725681e-06
3.339000e-01 2.390470e-06
3.347500e-01 2.047518e-06
3.356000e-01 1.698587e-06
3.364500e-01 1.345445e-06
3.373000e-01 9.898938e-07
3.381500e-01 6.337240e-07
3.390000e-01 2.787159e-07
3.398500e-01 -7.342410e-08
3.407000e-01 -4.210487e-07
3.415500e-01 -7.626309e-07
3.424000e-01 -1.096710e-06
3.432500e-01 -1.421941e-06
3.441000e-01 -1.737052e-06
3.449500e-01 -2.040864e-06
3.458000e-01 -2.332254e-06
3.466500e-01 -2.610161e-06
3.475000e-01 -2.873636e-06
3.483500e-01 -3.121827e-06
3.492000e-01 -3.354005e-06
3.500500e-01 -3.569610e-06
3.509000e-01 -3.768264e-06
3.517500e-01 -3.949753e-06
3.526000e-01 -4.114059e-06
3.534500e-01 -4.261315e-06
3.543000e-01 -4.391814e-06
3.551500e-01 -4.505935e-06
3.560000e-01 -4.604158e-06
3.568500e-01 -4.687035e-06
3.577000e-01 -4.755137e-06
3.585500e-01 -4.809077e-06
3.594000e-01 -4.849493e-06
3.602500e-01 -4.877038e-06
3.611000e-01 -4.892370e-06
3.619500e-01 -4.896153e-06
3.628000e-01 -4.889064e-06
3.636500e-01 -4.871804e-06
3.645000e-01 -4.845077e-06
3.653500e-01 -4.809628e-06
3.662000e-01 -4.766237e-06
3.670500e-01 -4.715733e-06
3.679000e-01 -4.658978e-06
3.687500e-01 -4.596873e-06
3.696000e-01 -4.530317e-06
3.704500e-01 -4.460197e-06
3.713000e-01 -4.387339e-06
3.721500e-01 -4.312481e-06
3.730000e-01 -4.236261e-06
3.738500e-01 -4.159219e-06
3.747000e-01 -4.081810e-06
3.755500e-01 -4.004434e-06
3.764000e-01 -3.927492e-06
3.772500e-01 -3.851414e-06
3.781000e-01 -3.776696e-06
3.789500e-01 -3.703908e-06
3.798000e-01 -3.633672e-06
3.806500e-01 -3.566639e-06
3.815000e-01 -3.503418e-06
3.823500e-01 -3.444517e-06
3.832000e-01 -3.390300e-06
3.840500e-01 -3.340948e-06
3.849000e-01 -3.296433e-06
3.857500e-01 -3.256549e-06
3.866000e-01 -3.220934e-06
3.874500e-01 -3.189127e-06
3.883000e-01 -3.160603e-06
3.891500e-01 -3.134810e-06
