-1.200000e-01 0.000000e+00
-1.191500e-01 0.000000e+00
-1.183000e-01 0.000000e+00
-1.174500e-01 0.000000e+00
-1.166000e-01 0.000000e+00
-1.157500e-01 0.000000e+00
-1.149000e-01 0.000000e+00
-1.140500e-01 0.000000e+00
-1.132000e-01 0.000000e+00
-1.123500e-01 0.000000e+00
-1.115000e-01 0.000000e+00
-1.106500e-01 0.000000e+00
-1.098000e-01 0.000000e+00
-1.089500e-01 -1.283589e-42
-1.081000e-01 -2.833846e-41
-1.072500e-01 -3.132757e-40
-1.064000e-01 -2.297788e-39
-1.055500e-01 -1.246290e-38
-1.047000e-01 -5.257301e-38
-1.038500e-01 -1.753027e-37
-1.030000e-01 -4.512121e-37
-1.021500e-01 -7.838665e-37
-1.013000e-01 -1.662186e-37
-1.004500e-01 5.364829e-36
-9.960000e-02 2.696373e-35
-9.875000e-02 8.927094e-35
-9.790000e-02 2.346913e-34
-9.705000e-02 5.126917e-34
-9.620000e-02 9.271792e-34
-9.535000e-02 1.301884e-33
-9.450001e-02 1.028603e-33
-9.365001e-02 -1.282921e-33
-9.280001e-02 -8.094586e-33
-9.195001e-02 -2.276599e-32
-9.110001e-02 -4.821396e-32
-9.025000e-02 -8.351726e-32
-8.940001e-02 -1.178331e-31
-8.855000e-02 -1.221176e-31
-8.770001e-02 -4.148950e-32
-8.685000e-02 2.054518e-31
-8.600000e-02 7.104143e-31
-8.515000e-02 1.530803e-30
-8.430000e-02 2.609025e-30
-8.345000e-02 3.660763e-30
-8.260000e-02 4.060743e-30
-8.175001e-02 2.786095e-30
-8.090001e-02 -1.492365e-30
-8.005001e-02 -1.006911e-29
-7.920000e-02 -2.354086e-29
-7.835001e-02 -4.083974e-29
-7.750000e-02 -5.813856e-29
-7.665001e-02 -6.800714e-29
-7.580000e-02 -5.938973e-29
-7.495001e-02 -1.905954e-29
-7.410000e-02 6.492037e-29
-7.325000e-02 1.976285e-28
-7.240000e-02 3.702532e-28
-7.155000e-02 5.532053e-28
-7.070000e-02 6.919256e-28
-6.985001e-02 7.084970e-28
-6.900001e-02 5.119536e-28
-6.815000e-02 1.886612e-29
-6.730001e-02 -8.166901e-28
-6.645000e-02 -1.968018e-27
-6.560001e-02 -3.303276e-27
-6.475000e-02 -4.565966e-27
-6.390001e-02 -5.379545e-27
-6.305000e-02 -5.285226e-27
-6.220000e-02 -3.816827e-27
-6.135000e-02 -6.088822e-28
-6.050000e-02 4.474649e-27
-5.965000e-02 1.121187e-26
-5.880000e-02 1.892083e-26
-5.795000e-02 2.641136e-26
-5.710001e-02 3.201552e-26
-5.625001e-02 3.371436e-26
-5.540001e-02 2.937031e-26
-5.455001e-02 1.706462e-26
-5.370001e-02 -4.471179e-27
-5.285000e-02 -3.535341e-26
-5.200000e-02 -7.401711e-26
-5.115000e-02 -1.167312e-25
-5.030000e-02 -1.572689e-25
-4.945000e-02 -1.868897e-25
-4.860000e-02 -1.948224e-25
-4.775000e-02 -1.694432e-25
-4.690000e-02 -1.002806e-25
-4.605000e-02 1.916744e-26
-4.520001e-02 1.880660e-25
-4.435001e-02 3.949050e-25
-4.350001e-02 6.150997e-25
-4.265001e-02 8.106711e-25
-4.180001e-02 9.331336e-25
-4.095000e-02 9.303446e-25
-4.010000e-02 7.572465e-25
-3.925000e-02 3.892150e-25
-3.840000e-02 -1.646922e-25
-3.755000e-02 -8.525105e-25
-3.670000e-02 -1.578620e-24
-3.585000e-02 -2.215205e-24
-3.500000e-02 -2.627313e-24
-3.415000e-02 -2.709009e-24
-3.330000e-02 -2.423091e-24
-3.245001e-02 -1.832142e-24
-3.160001e-02 -1.105843e-24
-3.075001e-02 -4.905903e-25
-2.990001e-02 -2.341477e-25
-2.905000e-02 -4.705478e-25
-2.820000e-02 -1.087670e-24
-2.735000e-02 -1.617912e-24
-2.650000e-02 -1.205699e-24
-2.565000e-02 1.292791e-24
-2.480000e-02 7.038566e-24
-2.395000e-02 1.676590e-23
-2.310000e-02 3.022093e-23
-2.225000e-02 4.560526e-23
-2.140000e-02 5.920810e-23
-2.055001e-02 6.544317e-23
-1.970001e-02 5.748826e-23
-1.885001e-02 2.863996e-23
-1.800001e-02 -2.566378e-23
-1.715000e-02 -1.054148e-22
-1.630000e-02 -2.036963e-22
-1.545000e-02 -3.051248e-22
-1.460000e-02 -3.858476e-22
-1.375000e-02 -4.157730e-22
-1.290000e-02 -3.634022e-22
-1.205000e-02 -2.030929e-22
-1.120000e-02 7.610350e-23
-1.035000e-02 4.616201e-22
-9.500004e-03 9.107554e-22
-8.650005e-03 1.348702e-21
-7.800005e-03 1.673419e-21
-6.950006e-03 1.768696e-21
-6.100006e-03 1.525239e-21
-5.250007e-03 8.677477e-22
-4.400000e-03 -2.161493e-22
-3.550000e-03 -1.650999e-21
-2.700001e-03 -3.259530e-21
-1.850002e-03 -4.766194e-21
-1.000002e-03 -5.823071e-21
-1.500025e-04 -6.059647e-21
6.999969e-04 -5.153256e-21
1.549996e-03 -2.911684e-21
2.399996e-03 6.456279e-22
3.249995e-03 5.225069e-21
4.099995e-03 1.023348e-20
4.949994e-03 1.480604e-20
5.799994e-03 1.789763e-20
6.650001e-03 1.843751e-20
7.499993e-03 1.553516e-20
8.350000e-03 8.710767e-21
9.199992e-03 -1.888105e-21
1.005000e-02 -1.533042e-20
1.089999e-02 -2.985451e-20
1.175000e-02 -4.297003e-20
1.259999e-02 -5.173164e-20
1.345000e-02 -5.317952e-20
1.430000e-02 -4.490747e-20
1.515000e-02 -2.568416e-20
1.600000e-02 3.979312e-21
1.684999e-02 4.143985e-20
1.770000e-02 8.183616e-20
1.854999e-02 1.184048e-19
1.940000e-02 1.432464e-19
2.024999e-02 1.485137e-19
2.110000e-02 1.279041e-19
2.194999e-02 7.824937e-20
2.280000e-02 9.225099e-22
2.364999e-02 -9.725292e-20
2.450000e-02 -2.038873e-19
2.535000e-02 -3.019197e-19
2.620000e-02 -3.715986e-19
2.705000e-02 -3.934317e-19
2.790000e-02 -3.517810e-19
2.875000e-02 -2.385822e-19
2.959999e-02 -5.653230e-20
3.045000e-02 1.789556e-19
3.129999e-02 4.396441e-19
3.215000e-02 6.866174e-19
3.299999e-02 8.747581e-19
3.385000e-02 9.592221e-19
3.469999e-02 9.031780e-19
3.555000e-02 6.856968e-19
3.639999e-02 3.084797e-19
3.725000e-02 -1.999438e-19
3.810000e-02 -7.836931e-19
3.895000e-02 -1.363435e-18
3.980000e-02 -1.844820e-18
4.065000e-02 -2.130874e-18
4.150000e-02 -2.137022e-18
4.234999e-02 -1.806816e-18
4.320000e-02 -1.126023e-18
4.404999e-02 -1.326395e-19
4.490000e-02 1.079397e-18
4.574999e-02 2.364392e-18
4.660000e-02 3.537685e-18
4.744999e-02 4.396586e-18
4.830000e-02 4.747782e-18
4.914999e-02 4.438262e-18
5.000000e-02 3.385907e-18
5.085000e-02 1.605144e-18
5.170000e-02 -7.769685e-19
5.255000e-02 -3.518384e-18
5.339999e-02 -6.276333e-18
5.425000e-02 -8.639220e-18
5.509999e-02 -1.017475e-17
5.595000e-02 -1.049018e-17
5.679999e-02 -9.297967e-18
5.765000e-02 -6.478089e-18
5.849999e-02 -2.126932e-18
5.935000e-02 3.416910e-18
6.019999e-02 9.578022e-18
6.105000e-02 1.558532e-17
6.190000e-02 2.054886e-17
6.275000e-02 2.356662e-17
6.360000e-02 2.385038e-17
6.445000e-02 2.085498e-17
6.530000e-02 1.439291e-17
6.614999e-02 4.715773e-18
6.700000e-02 -7.453109e-18
6.784999e-02 -2.094523e-17
6.870000e-02 -3.423544e-17
6.954999e-02 -4.558713e-17
7.040000e-02 -5.324035e-17
7.124999e-02 -5.562329e-17
7.210000e-02 -5.156318e-17
7.294999e-02 -4.047273e-17
7.380000e-02 -2.248939e-17
7.465000e-02 1.449106e-18
7.550000e-02 2.960415e-17
7.635000e-02 5.951441e-17
7.720000e-02 8.815084e-17
7.805000e-02 1.121412e-16
7.889999e-02 1.280540e-16
7.975000e-02 1.327263e-16
8.059999e-02 1.236190e-16
8.145000e-02 9.917570e-17
8.229999e-02 5.915626e-17
8.315000e-02 4.910528e-18
8.399999e-02 -6.044918e-17
8.485000e-02 -1.320204e-16
8.570001e-02 -2.032685e-16
8.655000e-02 -2.664009e-16
8.740000e-02 -3.129666e-16
8.825000e-02 -3.346658e-16
8.910000e-02 -3.243163e-16
8.995000e-02 -2.768915e-16
9.080000e-02 -1.905156e-16
9.164999e-02 -6.728069e-17
9.250000e-02 8.625045e-17
9.334999e-02 2.589756e-16
9.420000e-02 4.357023e-16
9.504999e-02 5.981443e-16
9.590000e-02 7.264326e-16
9.674999e-02 8.010412e-16
9.760000e-02 8.049663e-16
9.845001e-02 7.259518e-16
9.930000e-02 5.585297e-16
1.001500e-01 3.056273e-16
1.010000e-01 -2.046841e-17
1.018500e-01 -3.979810e-16
1.027000e-01 -7.964658e-16
1.035500e-01 -1.178633e-15
1.044000e-01 -1.503141e-15
1.052500e-01 -1.728213e-15
1.061000e-01 -1.815867e-15
1.069500e-01 -1.736400e-15
1.078000e-01 -1.472727e-15
1.086500e-01 -1.024086e-15
1.095000e-01 -4.085813e-16
1.103500e-01 3.359028e-16
1.112000e-01 1.152814e-15
1.120500e-01 1.970287e-15
1.129000e-01 2.706707e-15
1.137500e-01 3.278193e-15
1.146000e-01 3.607360e-15
1.154500e-01 3.632511e-15
1.163000e-01 3.316142e-15
1.171500e-01 2.651675e-15
1.180000e-01 1.667319e-15
1.188500e-01 4.263266e-16
1.197000e-01 -9.767727e-16
1.205500e-01 -2.423800e-15
1.214000e-01 -3.783781e-15
1.222500e-01 -4.925881e-15
1.231000e-01 -5.732957e-15
1.239500e-01 -6.114087e-15
1.248000e-01 -6.014573e-15
1.256500e-01 -5.422166e-15
1.265000e-01 -4.368780e-15
1.273500e-01 -2.927537e-15
1.282000e-01 -1.205548e-15
1.290500e-01 6.666553e-16
1.299000e-01 2.547756e-15
1.307500e-01 4.298931e-15
1.316000e-01 5.796359e-15
1.324500e-01 6.941776e-15
1.333000e-01 7.670165e-15
1.341500e-01 7.954006e-15
1.350000e-01 7.803802e-15
1.358500e-01 7.264901e-15
1.367000e-01 6.410786e-15
1.375500e-01 5.333271e-15
1.384000e-01 4.130303e-15
1.392500e-01 2.892159e-15
1.401000e-01 1.687352e-15
1.409500e-01 5.497223e-16
1.418000e-01 -5.314334e-16
1.426500e-01 -1.616197e-15
1.435000e-01 -2.811972e-15
1.443500e-01 -4.263153e-15
1.452000e-01 -6.132011e-15
1.460500e-01 -8.571426e-15
1.469000e-01 -1.169146e-14
1.477500e-01 -1.552310e-14
1.486000e-01 -1.998359e-14
1.494500e-01 -2.484846e-14
1.503000e-01 -2.973555e-14
1.511500e-01 -3.410506e-14
1.520000e-01 -3.727913e-14
1.528500e-01 -3.848135e-14
1.537000e-01 -3.689568e-14
1.545500e-01 -3.174101e-14
1.554000e-01 -2.235681e-14
1.562500e-01 -8.293391e-15
1.571000e-01 1.060024e-14
1.579500e-01 3.409771e-14
1.588000e-01 6.153261e-14
1.596500e-01 9.175745e-14
1.605000e-01 1.231301e-13
1.613500e-01 1.535320e-13
1.622000e-01 1.804226e-13
1.630500e-01 2.009341e-13
1.639000e-01 2.120083e-13
1.647500e-01 2.105767e-13
1.656000e-01 1.937816e-13
1.664500e-01 1.592314e-13
1.673000e-01 1.052791e-13
1.681500e-01 3.130815e-14
1.690000e-01 -6.199821e-14
1.698500e-01 -1.724287e-13
1.707000e-01 -2.960874e-13
1.715500e-01 -4.273347e-13
1.724000e-01 -5.588513e-13
1.732500e-01 -6.818412e-13
1.741000e-01 -7.863794e-13
1.749500e-01 -8.618990e-13
1.758000e-01 -8.978026e-13
1.766500e-01 -8.841606e-13
1.775000e-01 -8.124644e-13
1.783500e-01 -6.763817e-13
1.792000e-01 -4.724700e-13
1.800500e-01 -2.007962e-13
1.809000e-01 1.345776e-13
1.817500e-01 5.252797e-13
1.826000e-01 9.585137e-13
1.834500e-01 1.417159e-12
1.843000e-01 1.880099e-12
1.851500e-01 2.322772e-12
1.860000e-01 2.717948e-12
1.868500e-01 3.036700e-12
1.877000e-01 3.249575e-12
1.885500e-01 3.327909e-12
1.894000e-01 3.245273e-12
1.902500e-01 2.978984e-12
1.911000e-01 2.511660e-12
1.919500e-01 1.832719e-12
1.928000e-01 9.397949e-13
1.936500e-01 -1.600178e-13
1.945000e-01 -1.449159e-12
1.953500e-01 -2.898895e-12
1.962000e-01 -4.468983e-12
1.970500e-01 -6.107748e-12
1.979000e-01 -7.752615e-12
1.987500e-01 -9.331165e-12
1.996000e-01 -1.076269e-11
2.004500e-01 -1.196029e-11
2.013000e-01 -1.283350e-11
2.021500e-01 -1.329144e-11
2.030000e-01 -1.324643e-11
2.038500e-01 -1.261799e-11
2.047000e-01 -1.133721e-11
2.055500e-01 -9.351223e-12
2.064000e-01 -6.627779e-12
2.072500e-01 -3.159635e-12
2.081000e-01 1.031431e-12
2.089500e-01 5.891189e-12
2.098000e-01 1.133034e-11
2.106500e-01 1.722296e-11
2.115000e-01 2.340611e-11
2.123500e-01 2.968094e-11
2.132000e-01 3.581527e-11
2.140500e-01 4.154781e-11
2.149000e-01 4.659412e-11
2.157500e-01 5.065423e-11
2.166000e-01 5.342197e-11
2.174500e-01 5.459591e-11
2.183000e-01 5.389164e-11
2.191500e-01 5.105573e-11
2.200000e-01 4.588054e-11
2.208500e-01 3.822025e-11
2.217000e-01 2.800730e-11
2.225500e-01 1.526930e-11
2.234000e-01 1.454413e-13
2.242500e-01 -1.709741e-11
2.251000e-01 -3.604982e-11
2.259500e-01 -5.614614e-11
2.268000e-01 -7.665253e-11
2.276500e-01 -9.665689e-11
2.285000e-01 -1.150607e-10
2.293500e-01 -1.305727e-10
2.302000e-01 -1.417037e-10
2.310500e-01 -1.467623e-10
2.319000e-01 -1.438495e-10
2.327500e-01 -1.308525e-10
2.336000e-01 -1.054344e-10
2.344500e-01 -6.502072e-11
2.353000e-01 -6.779705e-12
2.361500e-01 7.240539e-11
2.370000e-01 1.759729e-10
2.378500e-01 3.077318e-10
2.387000e-01 4.719233e-10
2.395500e-01 6.733005e-10
2.404000e-01 9.172229e-10
2.412500e-01 1.209773e-09
2.421000e-01 1.557893e-09
2.429500e-01 1.969556e-09
2.438000e-01 2.453954e-09
2.446500e-01 3.021729e-09
2.455000e-01 3.685240e-09
2.463500e-01 4.458864e-09
2.472000e-01 5.359341e-09
2.480500e-01 6.406170e-09
2.489000e-01 7.622048e-09
2.497500e-01 9.033372e-09
2.506000e-01 1.067080e-08
2.514500e-01 1.256987e-08
2.523000e-01 1.477173e-08
2.531500e-01 1.732387e-08
2.540000e-01 2.028101e-08
2.548500e-01 2.370601e-08
2.557000e-01 2.767096e-08
2.565500e-01 3.225836e-08
2.574000e-01 3.756229e-08
2.582500e-01 4.368996e-08
2.591000e-01 5.076317e-08
2.599500e-01 5.892006e-08
2.608000e-01 6.831684e-08
2.616500e-01 7.912992e-08
2.625000e-01 9.155803e-08
2.633500e-01 1.058245e-07
2.642000e-01 1.221799e-07
2.650500e-01 1.409045e-07
2.659000e-01 1.623116e-07
2.667500e-01 1.867497e-07
2.676000e-01 2.146066e-07
2.684500e-01 2.463119e-07
2.693000e-01 2.823410e-07
2.701500e-01 3.232179e-07
2.710000e-01 3.695196e-07
2.718500e-01 4.218786e-07
2.727000e-01 4.809873e-07
2.735500e-01 5.476012e-07
2.744000e-01 6.225403e-07
2.752500e-01 7.066953e-07
2.761000e-01 8.010267e-07
2.769500e-01 9.065693e-07
2.778000e-01 1.024432e-06
2.786500e-01 1.155801e-06
2.795000e-01 1.301938e-06
2.803500e-01 1.464177e-06
2.812000e-01 1.643929e-06
2.820500e-01 1.842672e-06
2.829000e-01 2.061950e-06
2.837500e-01 2.303366e-06
2.846000e-01 2.568575e-06
2.854500e-01 2.859275e-06
2.863000e-01 3.177193e-06
2.871500e-01 3.524075e-06
2.880000e-01 3.901665e-06
2.888500e-01 4.311694e-06
2.897000e-01 4.755858e-06
2.905500e-01 5.235790e-06
2.914000e-01 5.753040e-06
2.922500e-01 6.309052e-06
2.931000e-01 6.905119e-06
2.939500e-01 7.542370e-06
2.948000e-01 8.221724e-06
2.956500e-01 8.943854e-06
2.965000e-01 9.709154e-06
2.973500e-01 1.051770e-05
2.982000e-01 1.136921e-05
2.990500e-01 1.226300e-05
2.999000e-01 1.319792e-05
3.007500e-01 1.417239e-05
3.016000e-01 1.518424e-05
3.024500e-01 1.623079e-05
3.033000e-01 1.730874e-05
3.041500e-01 1.841414e-05
3.050000e-01 1.954242e-05
3.058500e-01 2.068828e-05
3.067000e-01 2.184571e-05
3.075500e-01 2.300801e-05
3.084000e-01 2.416771e-05
3.092500e-01 2.531660e-05
3.101000e-01 2.644576e-05
3.109500e-01 2.754555e-05
3.118000e-01 2.860561e-05
3.126500e-01 2.961497e-05
3.135000e-01 3.056200e-05
3.143500e-01 3.143455e-05
3.152000e-01 3.221996e-05
3.160500e-01 3.290515e-05
3.169000e-01 3.347678e-05
3.177500e-01 3.392118e-05
3.186000e-01 3.422463e-05
3.194500e-01 3.437346e-05
3.203000e-01 3.435405e-05
3.211500e-01 3.415310e-05
3.220000e-01 3.375774e-05
3.228500e-01 3.315567e-05
3.237000e-01 3.233530e-05
3.245500e-01 3.128596e-05
3.254000e-01 2.999803e-05
3.262500e-01 2.846310e-05
3.271000e-01 2.667417e-05
3.279500e-01 2.462574e-05
3.288000e-01 2.231400e-05
3.296500e-01 1.973697e-05
3.305000e-01 1.689464e-05
3.313500e-01 1.378906e-05
3.322000e-01 1.042444e-05
3.330500e-01 6.807261e-06
3.339000e-01 2.946344e-06
3.347500e-01 -1.147135e-06
3.356000e-01 -5.459600e-06
3.364500e-01 -9.975080e-06
3.373000e-01 -1.467524e-05
3.381500e-01 -1.953944e-05
3.390000e-01 -2.454478e-05
3.398500e-01 -2.966625e-05
3.407000e-01 -3.487682e-05
3.415500e-01 -4.014764e-05
3.424000e-01 -4.544815e-05
3.432500e-01 -5.074641e-05
3.441000e-01 -5.600919e-05
3.449500e-01 -6.120230e-05
3.458000e-01 -6.629087e-05
3.466500e-01 -7.123961e-05
3.475000e-01 -7.601301e-05
3.483500e-01 -8.057582e-05
3.492000e-01 -8.489332e-05
3.500500e-01 -8.893150e-05
3.509000e-01 -9.265755e-05
3.517500e-01 -9.604017e-05
3.526000e-01 -9.904966e-05
3.534500e-01 -1.016585e-04
3.543000e-01 -1.038414e-04
3.551500e-01 -1.055758e-04
3.560000e-01 -1.068418e-04
3.568500e-01 -1.076226e-04
3.577000e-01 -1.079047e-04
3.585500e-01 -1.076781e-04
3.594000e-01 -1.069361e-04
3.602500e-01 -1.056758e-04
3.611000e-01 -1.038979e-04
3.619500e-01 -1.016069e-04
3.628000e-01 -9.881081e-05
3.636500e-01 -9.552153e-05
3.645000e-01 -9.175442e-05
3.653500e-01 -8.752831e-05
3.662000e-01 -8.286530e-05
3.670500e-01 -7.779060e-05
3.679000e-01 -7.233232e-05
3.687500e-01 -6.652123e-05
3.696000e-01 -6.039051e-05
3.704500e-01 -5.397547e-05
3.713000e-01 -4.731321e-05
3.721500e-01 -4.044232e-05
3.730000e-01 -3.340247e-05
3.738500e-01 -2.623420e-05
3.747000e-01 -1.897850e-05
3.755500e-01 -1.167651e-05
3.764000e-01 -4.369196e-06
3.772500e-01 2.902982e-06
3.781000e-01 1.010041e-05
3.789500e-01 1.718460e-05
3.798000e-01 2.411857e-05
3.806500e-01 3.086703e-05
3.815000e-01 3.739660e-05
3.823500e-01 4.367604e-05
3.832000e-01 4.967639e-05
3.840500e-01 5.537117e-05
3.849000e-01 6.073649e-05
3.857500e-01 6.575138e-05
3.866000e-01 7.039767e-05
3.874500e-01 7.466012e-05
3.883000e-01 7.852641e-05
3.891500e-01 8.198697e-05
