-1.200000e-01 0.000000e+00
-1.191500e-01 0.000000e+00
-1.183000e-01 0.000000e+00
-1.174500e-01 0.000000e+00
-1.166000e-01 0.000000e+00
-1.157500e-01 0.000000e+00
-1.149000e-01 0.000000e+00
-1.140500e-01 0.000000e+00
-1.132000e-01 0.000000e+00
-1.123500e-01 0.000000e+00
-1.115000e-01 0.000000e+00
-1.106500e-01 6.113693e-38
-1.098000e-01 1.135146e-36
-1.089500e-01 1.072870e-35
-1.081000e-01 6.852999e-35
-1.072500e-01 3.311454e-34
-1.064000e-01 1.283023e-33
-1.055500e-01 4.116365e-33
-1.047000e-01 1.110487e-32
-1.038500e-01 2.516543e-32
-1.030000e-01 4.660589e-32
-1.021500e-01 6.356583e-32
-1.013000e-01 3.208055e-32
-1.004500e-01 -1.554534e-31
-9.960000e-02 -7.049301e-31
-9.875000e-02 -1.930721e-30
-9.790000e-02 -4.187124e-30
-9.705000e-02 -7.642954e-30
-9.620000e-02 -1.182199e-29
-9.535000e-02 -1.488846e-29
-9.450001e-02 -1.279819e-29
-9.365001e-02 1.329144e-30
-9.280001e-02 3.697135e-29
-9.195001e-02 1.042123e-28
-9.110001e-02 2.090914e-28
-9.025000e-02 3.457970e-28
-8.940001e-02 4.862219e-28
-8.855000e-02 5.690657e-28
-8.770001e-02 4.927951e-28
-8.685000e-02 1.188509e-28
-8.600000e-02 -7.072887e-28
-8.515000e-02 -2.110276e-27
-8.430000e-02 -4.111034e-27
-8.345000e-02 -6.529015e-27
-8.260000e-02 -8.875967e-27
-8.175001e-02 -1.027082e-26
-8.090001e-02 -9.419968e-27
-8.005001e-02 -4.718526e-27
-7.920000e-02 5.470235e-27
-7.835001e-02 2.231484e-26
-7.750000e-02 4.579161e-26
-7.665001e-02 7.380183e-26
-7.580000e-02 1.012928e-25
-7.495001e-02 1.196616e-25
-7.410000e-02 1.168297e-25
-7.325000e-02 7.843769e-26
-7.240000e-02 -9.434102e-27
-7.155000e-02 -1.558192e-25
-7.070000e-02 -3.589096e-25
-6.985001e-02 -5.994269e-25
-6.900001e-02 -8.349182e-25
-6.815000e-02 -9.973022e-25
-6.730001e-02 -9.964385e-25
-6.645000e-02 -7.323286e-25
-6.560001e-02 -1.174779e-25
-6.475000e-02 8.912317e-25
-6.390001e-02 2.255017e-24
-6.305000e-02 3.817703e-24
-6.220000e-02 5.283517e-24
-6.135000e-02 6.221552e-24
-6.050000e-02 6.109631e-24
-5.965000e-02 4.425597e-24
-5.880000e-02 7.849144e-25
-5.795000e-02 -4.889862e-24
-5.710001e-02 -1.219770e-23
-5.625001e-02 -2.013018e-23
-5.540001e-02 -2.703861e-23
-5.455001e-02 -3.074964e-23
-5.370001e-02 -2.886662e-23
-5.285000e-02 -1.926297e-23
-5.200000e-02 -7.272556e-25
-5.115000e-02 2.633465e-23
-5.030000e-02 5.928998e-23
-4.945000e-02 9.295012e-23
-4.860000e-02 1.197202e-22
-4.775000e-02 1.303887e-22
-4.690000e-02 1.156297e-22
-4.605000e-02 6.814700e-23
-4.520001e-02 -1.479269e-23
-4.435001e-02 -1.288844e-22
-4.350001e-02 -2.609769e-22
-4.265001e-02 -3.886178e-22
-4.180001e-02 -4.815805e-22
-4.095000e-02 -5.057664e-22
-4.010000e-02 -4.294570e-22
-3.925000e-02 -2.313146e-22
-3.840000e-02 9.110206e-23
-3.755000e-02 5.141138e-22
-3.670000e-02 9.841193e-22
-3.585000e-02 1.419261e-21
-3.500000e-02 1.717980e-21
-3.415000e-02 1.774697e-21
-3.330000e-02 1.501217e-21
-3.245001e-02 8.506438e-22
-3.160001e-02 -1.609707e-22
-3.075001e-02 -1.440874e-21
-2.990001e-02 -2.819028e-21
-2.905000e-02 -4.064230e-21
-2.820000e-02 -4.917289e-21
-2.735000e-02 -5.137569e-21
-2.650000e-02 -4.555059e-21
-2.565000e-02 -3.116947e-21
-2.480000e-02 -9.167551e-22
-2.395000e-02 1.803985e-21
-2.310000e-02 4.686412e-21
-2.225000e-02 7.314752e-21
-2.140000e-02 9.295428e-21
-2.055001e-02 1.033687e-20
-1.970001e-02 1.030870e-20
-1.885001e-02 9.261498e-21
-1.800001e-02 7.396665e-21
-1.715000e-02 4.989840e-21
-1.630000e-02 2.286553e-21
-1.545000e-02 -5.979034e-22
-1.460000e-02 -3.736771e-21
-1.375000e-02 -7.375859e-21
-1.290000e-02 -1.182836e-20
-1.205000e-02 -1.729262e-20
-1.120000e-02 -2.363589e-20
-1.035000e-02 -3.021185e-20
-9.500004e-03 -3.579027e-20
-8.650005e-03 -3.866325e-20
-7.800005e-03 -3.695499e-20
-6.950006e-03 -2.910403e-20
-6.100006e-03 -1.442126e-20
-5.250007e-03 6.425720e-21
-4.400000e-03 3.117381e-20
-3.550000e-03 5.611748e-20
-2.700001e-03 7.672228e-20
-1.850002e-03 8.864667e-20
-1.000002e-03 8.898220e-20
-1.500025e-04 7.740315e-20
6.999969e-04 5.685885e-20
1.549996e-03 3.347612e-20
2.399996e-03 1.548196e-20
3.249995e-03 1.118760e-20
4.099995e-03 2.635517e-20
4.949994e-03 6.152688e-20
5.799994e-03 1.100499e-19
6.650001e-03 1.575251e-19
7.499993e-03 1.831964e-19
8.350000e-03 1.634017e-19
9.199992e-03 7.670995e-20
1.005000e-02 -9.014122e-20
1.089999e-02 -3.367543e-19
1.175000e-02 -6.453807e-19
1.259999e-02 -9.801638e-19
1.345000e-02 -1.289926e-18
1.430000e-02 -1.514350e-18
1.515000e-02 -1.592634e-18
1.600000e-02 -1.473066e-18
1.684999e-02 -1.121703e-18
1.770000e-02 -5.285308e-19
1.854999e-02 2.899252e-19
1.940000e-02 1.291594e-18
2.024999e-02 2.412646e-18
2.110000e-02 3.572507e-18
2.194999e-02 4.678430e-18
2.280000e-02 5.628352e-18
2.364999e-02 6.311825e-18
2.450000e-02 6.610025e-18
2.535000e-02 6.397041e-18
2.620000e-02 5.545119e-18
2.705000e-02 3.936233e-18
2.790000e-02 1.480987e-18
2.875000e-02 -1.856237e-18
2.959999e-02 -6.029318e-18
3.045000e-02 -1.088486e-17
3.129999e-02 -1.614497e-17
3.215000e-02 -2.140351e-17
3.299999e-02 -2.613846e-17
3.385000e-02 -2.973981e-17
3.469999e-02 -3.154958e-17
3.555000e-02 -3.090819e-17
3.639999e-02 -2.720233e-17
3.725000e-02 -1.991208e-17
3.810000e-02 -8.659705e-18
3.895000e-02 6.732218e-18
3.980000e-02 2.616314e-17
4.065000e-02 4.914909e-17
4.150000e-02 7.468904e-17
4.234999e-02 1.011171e-16
4.320000e-02 1.259736e-16
4.404999e-02 1.459447e-16
4.490000e-02 1.569345e-16
4.574999e-02 1.543297e-16
4.660000e-02 1.335005e-16
4.744999e-02 9.054013e-17
4.830000e-02 2.319337e-17
4.914999e-02 -6.814195e-17
5.000000e-02 -1.795129e-16
5.085000e-02 -3.028202e-16
5.170000e-02 -4.257506e-16
5.255000e-02 -5.324068e-16
5.339999e-02 -6.047140e-16
5.425000e-02 -6.245593e-16
5.509999e-02 -5.764666e-16
5.595000e-02 -4.504710e-16
5.679999e-02 -2.447483e-16
5.765000e-02 3.247997e-17
5.849999e-02 3.622098e-16
5.935000e-02 7.153898e-16
6.019999e-02 1.055236e-15
6.105000e-02 1.340978e-15
6.190000e-02 1.532636e-15
6.275000e-02 1.596229e-15
6.360000e-02 1.508679e-15
6.445000e-02 1.261673e-15
6.530000e-02 8.638611e-16
6.614999e-02 3.409902e-16
6.700000e-02 -2.661542e-16
6.784999e-02 -9.057728e-16
6.870000e-02 -1.520564e-15
6.954999e-02 -2.054003e-15
7.040000e-02 -2.456574e-15
7.124999e-02 -2.691137e-15
7.210000e-02 -2.736762e-15
7.294999e-02 -2.590514e-15
7.380000e-02 -2.266988e-15
7.465000e-02 -1.795648e-15
7.550000e-02 -1.216282e-15
7.635000e-02 -5.731539e-16
7.720000e-02 9.139947e-17
7.805000e-02 7.430316e-16
7.889999e-02 1.360157e-15
7.975000e-02 1.936524e-15
8.059999e-02 2.480821e-15
8.145000e-02 3.012908e-15
8.229999e-02 3.556649e-15
8.315000e-02 4.130004e-15
8.399999e-02 4.733636e-15
8.485000e-02 5.339922e-15
8.570001e-02 5.884757e-15
8.655000e-02 6.264547e-15
8.740000e-02 6.340588e-15
8.825000e-02 5.952020e-15
8.910000e-02 4.937344e-15
8.995000e-02 3.162738e-15
9.080000e-02 5.537458e-16
9.164999e-02 -2.874524e-15
9.250000e-02 -6.994340e-15
9.334999e-02 -1.155492e-14
9.420000e-02 -1.618886e-14
9.504999e-02 -2.043751e-14
9.590000e-02 -2.379402e-14
9.674999e-02 -2.576012e-14
9.760000e-02 -2.590904e-14
9.845001e-02 -2.394568e-14
9.930000e-02 -1.975436e-14
1.001500e-01 -1.342579e-14
1.010000e-01 -5.258116e-15
1.018500e-01 4.269221e-15
1.027000e-01 1.454513e-14
1.035500e-01 2.489204e-14
1.044000e-01 3.463580e-14
1.052500e-01 4.316820e-14
1.061000e-01 4.999163e-14
1.069500e-01 5.473882e-14
1.078000e-01 5.716569e-14
1.086500e-01 5.712129e-14
1.095000e-01 5.450392e-14
1.103500e-01 4.921621e-14
1.112000e-01 4.113319e-14
1.120500e-01 3.009521e-14
1.129000e-01 1.593359e-14
1.137500e-01 -1.469838e-15
1.146000e-01 -2.209519e-14
1.154500e-01 -4.568161e-14
1.163000e-01 -7.162640e-14
1.171500e-01 -9.890592e-14
1.180000e-01 -1.260366e-13
1.188500e-01 -1.510912e-13
1.197000e-01 -1.717774e-13
1.205500e-01 -1.855801e-13
1.214000e-01 -1.899592e-13
1.222500e-01 -1.825865e-13
1.231000e-01 -1.616032e-13
1.239500e-01 -1.258721e-13
1.248000e-01 -7.519916e-14
1.256500e-01 -1.050247e-14
1.265000e-01 6.609401e-14
1.273500e-01 1.512554e-13
1.282000e-01 2.405293e-13
1.290500e-01 3.285373e-13
1.299000e-01 4.092580e-13
1.307500e-01 4.763858e-13
1.316000e-01 5.237390e-13
1.324500e-01 5.456904e-13
1.333000e-01 5.375839e-13
1.341500e-01 4.961039e-13
1.350000e-01 4.195703e-13
1.358500e-01 3.081352e-13
1.367000e-01 1.638749e-13
1.375500e-01 -9.218310e-15
1.384000e-01 -2.053310e-13
1.392500e-01 -4.169836e-13
1.401000e-01 -6.352205e-13
1.409500e-01 -8.498160e-13
1.418000e-01 -1.049488e-12
1.426500e-01 -1.222127e-12
1.435000e-01 -1.355072e-12
1.443500e-01 -1.435472e-12
1.452000e-01 -1.450777e-12
1.460500e-01 -1.389408e-12
1.469000e-01 -1.241608e-12
1.477500e-01 -1.000477e-12
1.486000e-01 -6.631166e-13
1.494500e-01 -2.317928e-13
1.503000e-01 2.850260e-13
1.511500e-01 8.719069e-13
1.520000e-01 1.506125e-12
1.528500e-01 2.157898e-12
1.537000e-01 2.791254e-12
1.545500e-01 3.365546e-12
1.554000e-01 3.837550e-12
1.562500e-01 4.163984e-12
1.571000e-01 4.304302e-12
1.579500e-01 4.223496e-12
1.588000e-01 3.894725e-12
1.596500e-01 3.301578e-12
1.605000e-01 2.439827e-12
1.613500e-01 1.318633e-12
1.622000e-01 -3.882295e-14
1.630500e-01 -1.595218e-12
1.639000e-01 -3.299413e-12
1.647500e-01 -5.087166e-12
1.656000e-01 -6.882192e-12
1.664500e-01 -8.597611e-12
1.673000e-01 -1.013783e-11
1.681500e-01 -1.140100e-11
1.690000e-01 -1.228217e-11
1.698500e-01 -1.267727e-11
1.707000e-01 -1.248794e-11
1.715500e-01 -1.162721e-11
1.724000e-01 -1.002587e-11
1.732500e-01 -7.639150e-12
1.741000e-01 -4.453441e-12
1.749500e-01 -4.925144e-13
1.758000e-01 4.177329e-12
1.766500e-01 9.443669e-12
1.775000e-01 1.514640e-11
1.783500e-01 2.107860e-11
1.792000e-01 2.699004e-11
1.800500e-01 3.259337e-11
1.809000e-01 3.757299e-11
1.817500e-01 4.159620e-11
1.826000e-01 4.432651e-11
1.834500e-01 4.543824e-11
1.843000e-01 4.463219e-11
1.851500e-01 4.165126e-11
1.860000e-01 3.629606e-11
1.868500e-01 2.843924e-11
1.877000e-01 1.803819e-11
1.885500e-01 5.145373e-12
1.894000e-01 -1.008415e-11
1.902500e-01 -2.738836e-11
1.911000e-01 -4.639773e-11
1.919500e-01 -6.663837e-11
1.928000e-01 -8.753972e-11
1.936500e-01 -1.084468e-10
1.945000e-01 -1.286374e-10
1.953500e-01 -1.473439e-10
1.962000e-01 -1.637810e-10
1.970500e-01 -1.771781e-10
1.979000e-01 -1.868173e-10
1.987500e-01 -1.920768e-10
1.996000e-01 -1.924773e-10
2.004500e-01 -1.877338e-10
2.013000e-01 -1.778080e-10
2.021500e-01 -1.629613e-10
2.030000e-01 -1.438064e-10
2.038500e-01 -1.213583e-10
2.047000e-01 -9.708212e-11
2.055500e-01 -7.293383e-11
2.064000e-01 -5.139841e-11
2.072500e-01 -3.551974e-11
2.081000e-01 -2.892738e-11
2.089500e-01 -3.586005e-11
2.098000e-01 -6.118851e-11
2.106500e-01 -1.104391e-10
2.115000e-01 -1.898261e-10
2.123500e-01 -3.062883e-10
2.132000e-01 -4.675334e-10
2.140500e-01 -6.820928e-10
2.149000e-01 -9.593868e-10
2.157500e-01 -1.309821e-09
2.166000e-01 -1.744894e-09
2.174500e-01 -2.277347e-09
2.183000e-01 -2.921323e-09
2.191500e-01 -3.692589e-09
2.200000e-01 -4.608765e-09
2.208500e-01 -5.689620e-09
2.217000e-01 -6.957429e-09
2.225500e-01 -8.437382e-09
2.234000e-01 -1.015812e-08
2.242500e-01 -1.215230e-08
2.251000e-01 -1.445727e-08
2.259500e-01 -1.711587e-08
2.268000e-01 -2.017724e-08
2.276500e-01 -2.369775e-08
2.285000e-01 -2.774218e-08
2.293500e-01 -3.238492e-08
2.302000e-01 -3.771135e-08
2.310500e-01 -4.381939e-08
2.319000e-01 -5.082105e-08
2.327500e-01 -5.884417e-08
2.336000e-01 -6.803449e-08
2.344500e-01 -7.855788e-08
2.353000e-01 -9.060273e-08
2.361500e-01 -1.043829e-07
2.370000e-01 -1.201403e-07
2.378500e-01 -1.381487e-07
2.387000e-01 -1.587161e-07
2.395500e-01 -1.821894e-07
2.404000e-01 -2.089586e-07
2.412500e-01 -2.394607e-07
2.421000e-01 -2.741855e-07
2.429500e-01 -3.136798e-07
2.438000e-01 -3.585536e-07
2.446500e-01 -4.094859e-07
2.455000e-01 -4.672304e-07
2.463500e-01 -5.326228e-07
2.472000e-01 -6.065865e-07
2.480500e-01 -6.901417e-07
2.489000e-01 -7.844113e-07
2.497500e-01 -8.906299e-07
2.506000e-01 -1.010151e-06
2.514500e-01 -1.144454e-06
2.523000e-01 -1.295152e-06
2.531500e-01 -1.463999e-06
2.540000e-01 -1.652897e-06
2.548500e-01 -1.863901e-06
2.557000e-01 -2.099228e-06
2.565500e-01 -2.361259e-06
2.574000e-01 -2.652543e-06
2.582500e-01 -2.975793e-06
2.591000e-01 -3.333895e-06
2.599500e-01 -3.729897e-06
2.608000e-01 -4.167013e-06
2.616500e-01 -4.648612e-06
2.625000e-01 -5.178204e-06
2.633500e-01 -5.759434e-06
2.642000e-01 -6.396048e-06
2.650500e-01 -7.091892e-06
2.659000e-01 -7.850866e-06
2.667500e-01 -8.676914e-06
2.676000e-01 -9.573967e-06
2.684500e-01 -1.054592e-05
2.693000e-01 -1.159656e-05
2.701500e-01 -1.272956e-05
2.710000e-01 -1.394837e-05
2.718500e-01 -1.525618e-05
2.727000e-01 -1.665582e-05
2.735500e-01 -1.814975e-05
2.744000e-01 -1.973993e-05
2.752500e-01 -2.142772e-05
2.761000e-01 -2.321387e-05
2.769500e-01 -2.509832e-05
2.778000e-01 -2.708020e-05
2.786500e-01 -2.915767e-05
2.795000e-01 -3.132786e-05
2.803500e-01 -3.358676e-05
2.812000e-01 -3.592913e-05
2.820500e-01 -3.834837e-05
2.829000e-01 -4.083652e-05
2.837500e-01 -4.338407e-05
2.846000e-01 -4.597998e-05
2.854500e-01 -4.861159e-05
2.863000e-01 -5.126449e-05
2.871500e-01 -5.392261e-05
2.880000e-01 -5.656813e-05
2.888500e-01 -5.918147e-05
2.897000e-01 -6.174135e-05
2.905500e-01 -6.422481e-05
2.914000e-01 -6.660726e-05
2.922500e-01 -6.886253e-05
2.931000e-01 -7.096304e-05
2.939500e-01 -7.287988e-05
2.948000e-01 -7.458307e-05
2.956500e-01 -7.604166e-05
2.965000e-01 -7.722397e-05
2.973500e-01 -7.809792e-05
2.982000e-01 -7.863111e-05
2.990500e-01 -7.879137e-05
2.999000e-01 -7.854681e-05
3.007500e-01 -7.786638e-05
3.016000e-01 -7.672012e-05
3.024500e-01 -7.507956e-05
3.033000e-01 -7.291820e-05
3.041500e-01 -7.021183e-05
3.050000e-01 -6.693883e-05
3.058500e-01 -6.308075e-05
3.067000e-01 -5.862253e-05
3.075500e-01 -5.355303e-05
3.084000e-01 -4.786533e-05
3.092500e-01 -4.155713e-05
3.101000e-01 -3.463102e-05
3.109500e-01 -2.709474e-05
3.118000e-01 -1.896144e-05
3.126500e-01 -1.024985e-05
3.135000e-01 -9.844864e-07
3.143500e-01 8.804276e-06
3.152000e-01 1.908017e-05
3.160500e-01 2.980107e-05
3.169000e-01 4.091905e-05
3.177500e-01 5.238058e-05
3.186000e-01 6.412674e-05
3.194500e-01 7.609353e-05
3.203000e-01 8.821228e-05
3.211500e-01 1.004099e-04
3.220000e-01 1.126098e-04
3.228500e-01 1.247317e-04
3.237000e-01 1.366930e-04
3.245500e-01 1.484091e-04
3.254000e-01 1.597943e-04
3.262500e-01 1.707622e-04
3.271000e-01 1.812268e-04
3.279500e-01 1.911032e-04
3.288000e-01 2.003085e-04
3.296500e-01 2.087627e-04
3.305000e-01 2.163891e-04
3.313500e-01 2.231158e-04
3.322000e-01 2.288758e-04
3.330500e-01 2.336081e-04
3.339000e-01 2.372586e-04
3.347500e-01 2.397801e-04
3.356000e-01 2.411338e-04
3.364500e-01 2.412889e-04
3.373000e-01 2.402239e-04
3.381500e-01 2.379260e-04
3.390000e-01 2.343924e-04
3.398500e-01 2.296296e-04
3.407000e-01 2.236539e-04
3.415500e-01 2.164912e-04
3.424000e-01 2.081769e-04
3.432500e-01 1.987559e-04
3.441000e-01 1.882819e-04
3.449500e-01 1.768173e-04
3.458000e-01 1.644325e-04
3.466500e-01 1.512050e-04
3.475000e-01 1.372190e-04
3.483500e-01 1.225647e-04
3.492000e-01 1.073373e-04
3.500500e-01 9.163615e-05
3.509000e-01 7.556418e-05
3.517500e-01 5.922652e-05
3.526000e-01 4.272969e-05
3.534500e-01 2.618050e-05
3.543000e-01 9.684918e-06
3.551500e-01 -6.652756e-06
3.560000e-01 -2.273074e-05
3.568500e-01 -3.845043e-05
3.577000e-01 -5.371731e-05
3.585500e-01 -6.844180e-05
3.594000e-01 -8.254030e-05
3.602500e-01 -9.593603e-05
3.611000e-01 -1.085595e-04
3.619500e-01 -1.203487e-04
3.628000e-01 -1.312496e-04
3.636500e-01 -1.412160e-04
3.645000e-01 -1.502096e-04
3.653500e-01 -1.582011e-04
3.662000e-01 -1.651697e-04
3.670500e-01 -1.711038e-04
3.679000e-01 -1.760006e-04
3.687500e-01 -1.798656e-04
3.696000e-01 -1.827114e-04
3.704500e-01 -1.845579e-04
3.713000e-01 -1.854312e-04
3.721500e-01 -1.853640e-04
3.730000e-01 -1.843956e-04
3.738500e-01 -1.825714e-04
3.747000e-01 -1.799424e-04
3.755500e-01 -1.765629e-04
3.764000e-01 -1.724899e-04
3.772500e-01 -1.677819e-04
3.781000e-01 -1.624987e-04
3.789500e-01 -1.567021e-04
3.798000e-01 -1.504556e-04
3.806500e-01 -1.438244e-04
3.815000e-01 -1.368734e-04
3.823500e-01 -1.296657e-04
3.832000e-01 -1.222612e-04
3.840500e-01 -1.147158e-04
3.849000e-01 -1.070821e-04
3.857500e-01 -9.941122e-05
3.866000e-01 -9.175336e-05
3.874500e-01 -8.415763e-05
3.883000e-01 -7.667013e-05
3.891500e-01 -6.933123e-05
