-1.200000e-01 0.000000e+00
-1.191500e-01 0.000000e+00
-1.183000e-01 -5.390716e-15
-1.174500e-01 -2.660369e-14
-1.166000e-01 -7.877170e-14
-1.157500e-01 -1.826479e-13
-1.149000e-01 -3.656274e-13
-1.140500e-01 -6.578717e-13
-1.132000e-01 -1.075864e-12
-1.123500e-01 -1.587378e-12
-1.115000e-01 -2.059832e-12
-1.106500e-01 -2.207446e-12
-1.098000e-01 -1.567270e-12
-1.089500e-01 4.572272e-13
-1.081000e-01 4.451219e-12
-1.072500e-01 1.073156e-11
-1.064000e-01 1.900786e-11
-1.055500e-01 2.804106e-11
-1.047000e-01 3.542215e-11
-1.038500e-01 3.761266e-11
-1.030000e-01 3.036638e-11
-1.021500e-01 9.582366e-12
-1.013000e-01 -2.747302e-11
-1.004500e-01 -8.076955e-11
-9.960000e-02 -1.462574e-10
-9.875000e-02 -2.151372e-10
-9.790000e-02 -2.740246e-10
-9.705000e-02 -3.062657e-10
-9.620000e-02 -2.944391e-10
-9.535000e-02 -2.238142e-10
-9.450001e-02 -8.624630e-11
-9.365001e-02 1.162290e-10
-9.280001e-02 3.689378e-10
-9.195001e-02 6.440052e-10
-9.110001e-02 9.021962e-10
-9.025000e-02 1.097263e-09
-8.940001e-02 1.182416e-09
-8.855000e-02 1.118071e-09
-8.770001e-02 8.796512e-10
-8.685000e-02 4.640825e-10
-8.600000e-02 -1.062970e-10
-8.515000e-02 -7.833613e-10
-8.430000e-02 -1.496749e-09
-8.345000e-02 -2.161113e-09
-8.260000e-02 -2.686195e-09
-8.175001e-02 -2.988363e-09
-8.090001e-02 -3.001990e-09
-8.005001e-02 -2.689017e-09
-7.920000e-02 -2.045358e-09
-7.835001e-02 -1.103247e-09
-7.750000e-02 7.073839e-11
-7.665001e-02 1.381644e-09
-7.580000e-02 2.715253e-09
-7.495001e-02 3.949118e-09
-7.410000e-02 4.964182e-09
-7.325000e-02 5.655706e-09
-7.240000e-02 5.942474e-09
-7.155000e-02 5.773557e-09
-7.070000e-02 5.132328e-09
-6.985001e-02 4.037698e-09
-6.900001e-02 2.542847e-09
-6.815000e-02 7.318476e-10
-6.730001e-02 -1.285373e-09
-6.645000e-02 -3.379249e-09
-6.560001e-02 -5.407583e-09
-6.475000e-02 -7.222978e-09
-6.390001e-02 -8.680366e-09
-6.305000e-02 -9.644296e-09
-6.220000e-02 -9.995618e-09
-6.135000e-02 -9.637188e-09
-6.050000e-02 -8.498104e-09
-5.965000e-02 -6.536058e-09
-5.880000e-02 -3.737367e-09
-5.795000e-02 -1.143210e-10
-5.710001e-02 4.300293e-09
-5.625001e-02 9.461532e-09
-5.540001e-02 1.532313e-08
-5.455001e-02 2.185054e-08
-5.370001e-02 2.903504e-08
-5.285000e-02 3.690833e-08
-5.200000e-02 4.555631e-08
-5.115000e-02 5.513099e-08
-5.030000e-02 6.586004e-08
-4.945000e-02 7.805282e-08
-4.860000e-02 9.210354e-08
-4.775000e-02 1.084909e-07
-4.690000e-02 1.277767e-07
-4.605000e-02 1.506027e-07
-4.520001e-02 1.776887e-07
-4.435001e-02 2.098335e-07
-4.350001e-02 2.479188e-07
-4.265001e-02 2.929184e-07
-4.180001e-02 3.459129e-07
-4.095000e-02 4.081105e-07
-4.010000e-02 4.808712e-07
-3.925000e-02 5.657382e-07
-3.840000e-02 6.644702e-07
-3.755000e-02 7.790791e-07
-3.670000e-02 9.118651e-07
-3.585000e-02 1.065461e-06
-3.500000e-02 1.242869e-06
-3.415000e-02 1.447505e-06
-3.330000e-02 1.683239e-06
-3.245001e-02 1.954442e-06
-3.160001e-02 2.266024e-06
-3.075001e-02 2.623487e-06
-2.990001e-02 3.032963e-06
-2.905000e-02 3.501261e-06
-2.820000e-02 4.035909e-06
-2.735000e-02 4.645210e-06
-2.650000e-02 5.338275e-06
-2.565000e-02 6.125086e-06
-2.480000e-02 7.016533e-06
-2.395000e-02 8.024481e-06
-2.310000e-02 9.161836e-06
-2.225000e-02 1.044257e-05
-2.140000e-02 1.188183e-05
-2.055001e-02 1.349594e-05
-1.970001e-02 1.530250e-05
-1.885001e-02 1.732039e-05
-1.800001e-02 1.956980e-05
-1.715000e-02 2.207227e-05
-1.630000e-02 2.485063e-05
-1.545000e-02 2.792901e-05
-1.460000e-02 3.133278e-05
-1.375000e-02 3.508841e-05
-1.290000e-02 3.922358e-05
-1.205000e-02 4.376675e-05
-1.120000e-02 4.874731e-05
-1.035000e-02 5.419526e-05
-9.500004e-03 6.014101e-05
-8.650005e-03 6.661518e-05
-7.800005e-03 7.364832e-05
-6.950006e-03 8.127063e-05
-6.100006e-03 8.951150e-05
-5.250007e-03 9.839926e-05
-4.400000e-03 1.079606e-04
-3.550000e-03 1.182200e-04
-2.700001e-03 1.291998e-04
-1.850002e-03 1.409188e-04
-1.000002e-03 1.533923e-04
-1.500025e-04 1.666312e-04
6.999969e-04 1.806415e-04
1.549996e-03 1.954234e-04
2.399996e-03 2.109711e-04
3.249995e-03 2.272718e-04
4.099995e-03 2.443045e-04
4.949994e-03 2.620404e-04
5.799994e-03 2.804412e-04
6.650001e-03 2.994586e-04
7.499993e-03 3.190345e-04
8.350000e-03 3.390988e-04
9.199992e-03 3.595701e-04
1.005000e-02 3.803552e-04
1.089999e-02 4.013478e-04
1.175000e-02 4.224291e-04
1.259999e-02 4.434674e-04
1.345000e-02 4.643178e-04
1.430000e-02 4.848227e-04
1.515000e-02 5.048118e-04
1.600000e-02 5.241032e-04
1.684999e-02 5.425022e-04
1.770000e-02 5.598050e-04
1.854999e-02 5.757968e-04
1.940000e-02 5.902550e-04
2.024999e-02 6.029491e-04
2.110000e-02 6.136440e-04
2.194999e-02 6.220998e-04
2.280000e-02 6.280750e-04
2.364999e-02 6.313288e-04
2.450000e-02 6.316229e-04
2.535000e-02 6.287236e-04
2.620000e-02 6.224054e-04
2.705000e-02 6.124540e-04
2.790000e-02 5.986677e-04
2.875000e-02 5.808609e-04
2.959999e-02 5.588689e-04
3.045000e-02 5.325481e-04
3.129999e-02 5.017797e-04
3.215000e-02 4.664741e-04
3.299999e-02 4.265711e-04
3.385000e-02 3.820443e-04
3.469999e-02 3.329027e-04
3.555000e-02 2.791928e-04
3.639999e-02 2.210003e-04
3.725000e-02 1.584514e-04
3.810000e-02 9.171445e-05
3.895000e-02 2.100054e-05
3.980000e-02 -5.343686e-05
4.065000e-02 -1.313014e-04
4.150000e-02 -2.122550e-04
4.234999e-02 -2.959177e-04
4.320000e-02 -3.818714e-04
4.404999e-02 -4.696609e-04
4.490000e-02 -5.587960e-04
4.574999e-02 -6.487559e-04
4.660000e-02 -7.389915e-04
4.744999e-02 -8.289305e-04
4.830000e-02 -9.179818e-04
4.914999e-02 -1.005539e-03
5.000000e-02 -1.090987e-03
5.085000e-02 -1.173708e-03
5.170000e-02 -1.253083e-03
5.255000e-02 -1.328504e-03
5.339999e-02 -1.399375e-03
5.425000e-02 -1.465118e-03
5.509999e-02 -1.525183e-03
5.595000e-02 -1.579049e-03
5.679999e-02 -1.626233e-03
5.765000e-02 -1.666292e-03
5.849999e-02 -1.698832e-03
5.935000e-02 -1.723508e-03
6.019999e-02 -1.740032e-03
6.105000e-02 -1.748176e-03
6.190000e-02 -1.747771e-03
6.275000e-02 -1.738715e-03
6.360000e-02 -1.720969e-03
6.445000e-02 -1.694565e-03
6.530000e-02 -1.659600e-03
6.614999e-02 -1.616238e-03
6.700000e-02 -1.564710e-03
6.784999e-02 -1.505311e-03
6.870000e-02 -1.438396e-03
6.954999e-02 -1.364383e-03
7.040000e-02 -1.283740e-03
7.124999e-02 -1.196989e-03
7.210000e-02 -1.104697e-03
7.294999e-02 -1.007470e-03
7.380000e-02 -9.059511e-04
7.465000e-02 -8.008116e-04
7.550000e-02 -6.927445e-04
7.635000e-02 -5.824601e-04
7.720000e-02 -4.706772e-04
7.805000e-02 -3.581181e-04
7.889999e-02 -2.455014e-04
7.975000e-02 -1.335360e-04
8.059999e-02 -2.291411e-05
8.145000e-02 8.569496e-05
8.229999e-02 1.916486e-04
8.315000e-02 2.943370e-04
8.399999e-02 3.931902e-04
8.485000e-02 4.876784e-04
8.570001e-02 5.773191e-04
8.655000e-02 6.616788e-04
8.740000e-02 7.403750e-04
8.825000e-02 8.130790e-04
8.910000e-02 8.795190e-04
8.995000e-02 9.394769e-04
9.080000e-02 9.927924e-04
9.164999e-02 1.039361e-03
9.250000e-02 1.079131e-03
9.334999e-02 1.112108e-03
9.420000e-02 1.138344e-03
9.504999e-02 1.157944e-03
9.590000e-02 1.171058e-03
9.674999e-02 1.177877e-03
9.760000e-02 1.178636e-03
9.845001e-02 1.173600e-03
9.930000e-02 1.163071e-03
1.001500e-01 1.147375e-03
1.010000e-01 1.126865e-03
1.018500e-01 1.101909e-03
1.027000e-01 1.072892e-03
1.035500e-01 1.040211e-03
1.044000e-01 1.004269e-03
1.052500e-01 9.654703e-04
1.061000e-01 9.242193e-04
1.069500e-01 8.809161e-04
1.078000e-01 8.359528e-04
1.086500e-01 7.897106e-04
1.095000e-01 7.425573e-04
1.103500e-01 6.948443e-04
1.112000e-01 6.469056e-04
1.120500e-01 5.990548e-04
1.129000e-01 5.515840e-04
1.137500e-01 5.047631e-04
1.146000e-01 4.588385e-04
1.154500e-01 4.140325e-04
1.163000e-01 3.705431e-04
1.171500e-01 3.285442e-04
1.180000e-01 2.881857e-04
1.188500e-01 2.495936e-04
1.197000e-01 2.128712e-04
1.205500e-01 1.780996e-04
1.214000e-01 1.453389e-04
1.222500e-01 1.146293e-04
1.231000e-01 8.599217e-05
1.239500e-01 5.943155e-05
1.248000e-01 3.493579e-05
1.256500e-01 1.247840e-05
1.265000e-01 -7.979895e-06
1.273500e-01 -2.648990e-05
1.282000e-01 -4.311280e-05
1.290500e-01 -5.791816e-05
1.299000e-01 -7.098271e-05
1.307500e-01 -8.238982e-05
1.316000e-01 -9.222679e-05
1.324500e-01 -1.005849e-04
1.333000e-01 -1.075578e-04
1.341500e-01 -1.132406e-04
1.350000e-01 -1.177286e-04
1.358500e-01 -1.211169e-04
1.367000e-01 -1.234993e-04
1.375500e-01 -1.249680e-04
1.384000e-01 -1.256123e-04
1.392500e-01 -1.255189e-04
1.401000e-01 -1.247709e-04
1.409500e-01 -1.234476e-04
1.418000e-01 -1.216245e-04
1.426500e-01 -1.193725e-04
1.435000e-01 -1.167585e-04
1.443500e-01 -1.138446e-04
1.452000e-01 -1.106886e-04
1.460500e-01 -1.073437e-04
1.469000e-01 -1.038583e-04
1.477500e-01 -1.002765e-04
1.486000e-01 -9.663809e-05
1.494500e-01 -9.297841e-05
1.503000e-01 -8.932866e-05
1.511500e-01 -8.571604e-05
1.520000e-01 -8.216400e-05
1.528500e-01 -7.869234e-05
1.537000e-01 -7.531746e-05
1.545500e-01 -7.205258e-05
1.554000e-01 -6.890798e-05
1.562500e-01 -6.589122e-05
1.571000e-01 -6.300748e-05
1.579500e-01 -6.025971e-05
1.588000e-01 -5.764879e-05
1.596500e-01 -5.517396e-05
1.605000e-01 -5.283293e-05
1.613500e-01 -5.062210e-05
1.622000e-01 -4.853687e-05
1.630500e-01 -4.657165e-05
1.639000e-01 -4.472036e-05
1.647500e-01 -4.297632e-05
1.656000e-01 -4.133264e-05
1.664500e-01 -3.978226e-05
1.673000e-01 -3.831820e-05
1.681500e-01 -3.693357e-05
1.690000e-01 -3.562176e-05
1.698500e-01 -3.437650e-05
1.707000e-01 -3.319201e-05
1.715500e-01 -3.206293e-05
1.724000e-01 -3.098452e-05
1.732500e-01 -2.995248e-05
1.741000e-01 -2.896320e-05
1.749500e-01 -2.801353e-05
1.758000e-01 -2.710092e-05
1.766500e-01 -2.622325e-05
1.775000e-01 -2.537888e-05
1.783500e-01 -2.456657e-05
1.792000e-01 -2.378538e-05
1.800500e-01 -2.303463e-05
1.809000e-01 -2.231384e-05
1.817500e-01 -2.162267e-05
1.826000e-01 -2.096088e-05
1.834500e-01 -2.032818e-05
1.843000e-01 -1.972430e-05
1.851500e-01 -1.914892e-05
1.860000e-01 -1.860157e-05
1.868500e-01 -1.808167e-05
1.877000e-01 -1.758847e-05
1.885500e-01 -1.712102e-05
1.894000e-01 -1.667826e-05
1.902500e-01 -1.625885e-05
1.911000e-01 -1.586134e-05
1.919500e-01 -1.548413e-05
1.928000e-01 -1.512549e-05
1.936500e-01 -1.478359e-05
1.945000e-01 -1.445658e-05
1.953500e-01 -1.414257e-05
1.962000e-01 -1.383972e-05
1.970500e-01 -1.354628e-05
1.979000e-01 -1.326055e-05
1.987500e-01 -1.298103e-05
1.996000e-01 -1.270634e-05
2.004500e-01 -1.243530e-05
2.013000e-01 -1.216693e-05
2.021500e-01 -1.190044e-05
2.030000e-01 -1.163524e-05
2.038500e-01 -1.137093e-05
2.047000e-01 -1.110730e-05
2.055500e-01 -1.084428e-05
2.064000e-01 -1.058196e-05
2.072500e-01 -1.032052e-05
2.081000e-01 -1.006026e-05
2.089500e-01 -9.801520e-06
2.098000e-01 -9.544665e-06
2.106500e-01 -9.290085e-06
2.115000e-01 -9.038123e-06
2.123500e-01 -8.789052e-06
2.132000e-01 -8.543086e-06
2.140500e-01 -8.300298e-06
2.149000e-01 -8.060654e-06
2.157500e-01 -7.823936e-06
2.166000e-01 -7.589804e-06
2.174500e-01 -7.357746e-06
2.183000e-01 -7.127122e-06
2.191500e-01 -6.897157e-06
2.200000e-01 -6.666988e-06
2.208500e-01 -6.435684e-06
2.217000e-01 -6.202290e-06
2.225500e-01 -5.965861e-06
2.234000e-01 -5.725517e-06
2.242500e-01 -5.480430e-06
2.251000e-01 -5.229922e-06
2.259500e-01 -4.973459e-06
2.268000e-01 -4.710670e-06
2.276500e-01 -4.441409e-06
2.285000e-01 -4.165731e-06
2.293500e-01 -3.883938e-06
2.302000e-01 -3.596568e-06
2.310500e-01 -3.304422e-06
2.319000e-01 -3.008533e-06
2.327500e-01 -2.710161e-06
2.336000e-01 -2.410767e-06
2.344500e-01 -2.111991e-06
2.353000e-01 -1.815594e-06
2.361500e-01 -1.523436e-06
2.370000e-01 -1.237412e-06
2.378500e-01 -9.594214e-07
2.387000e-01 -6.913286e-07
2.395500e-01 -4.348888e-07
2.404000e-01 -1.917515e-07
2.412500e-01 3.659277e-08
2.421000e-01 2.488649e-07
2.429500e-01 4.439759e-07
2.438000e-01 6.211071e-07
2.446500e-01 7.796985e-07
2.455000e-01 9.194797e-07
2.463500e-01 1.040454e-06
2.472000e-01 1.142930e-06
2.480500e-01 1.227484e-06
2.489000e-01 1.294948e-06
2.497500e-01 1.346393e-06
2.506000e-01 1.383064e-06
2.514500e-01 1.406362e-06
2.523000e-01 1.417794e-06
2.531500e-01 1.418909e-06
2.540000e-01 1.411273e-06
2.548500e-01 1.396415e-06
2.557000e-01 1.375770e-06
2.565500e-01 1.350677e-06
2.574000e-01 1.322315e-06
2.582500e-01 1.291678e-06
2.591000e-01 1.259561e-06
2.599500e-01 1.226528e-06
2.608000e-01 1.192907e-06
2.616500e-01 1.158790e-06
2.625000e-01 1.124018e-06
2.633500e-01 1.088212e-06
2.642000e-01 1.050784e-06
2.650500e-01 1.010957e-06
2.659000e-01 9.678223e-07
2.667500e-01 9.203362e-07
2.676000e-01 8.674230e-07
2.684500e-01 8.079539e-07
2.693000e-01 7.408435e-07
2.701500e-01 6.650572e-07
2.710000e-01 5.796684e-07
2.718500e-01 4.838957e-07
2.727000e-01 3.771403e-07
2.735500e-01 2.590087e-07
2.744000e-01 1.293362e-07
2.752500e-01 -1.178692e-08
2.761000e-01 -1.640297e-07
2.769500e-01 -3.267868e-07
2.778000e-01 -4.992202e-07
2.786500e-01 -6.802616e-07
2.795000e-01 -8.686340e-07
2.803500e-01 -1.062880e-06
2.812000e-01 -1.261411e-06
2.820500e-01 -1.462518e-06
2.829000e-01 -1.664434e-06
2.837500e-01 -1.865355e-06
2.846000e-01 -2.063477e-06
2.854500e-01 -2.257045e-06
2.863000e-01 -2.444375e-06
2.871500e-01 -2.623898e-06
2.880000e-01 -2.794179e-06
2.888500e-01 -2.953964e-06
2.897000e-01 -3.102191e-06
2.905500e-01 -3.238014e-06
2.914000e-01 -3.360810e-06
2.922500e-01 -3.470199e-06
2.931000e-01 -3.566029e-06
2.939500e-01 -3.648369e-06
2.948000e-01 -3.717510e-06
2.956500e-01 -3.773924e-06
2.965000e-01 -3.818253e-06
2.973500e-01 -3.851265e-06
2.982000e-01 -3.873842e-06
2.990500e-01 -3.886933e-06
2.999000e-01 -3.891520e-06
3.007500e-01 -3.888592e-06
3.016000e-01 -3.879110e-06
3.024500e-01 -3.863968e-06
3.033000e-01 -3.843978e-06
3.041500e-01 -3.819841e-06
3.050000e-01 -3.792137e-06
3.058500e-01 -3.761300e-06
3.067000e-01 -3.727626e-06
3.075500e-01 -3.691258e-06
3.084000e-01 -3.652209e-06
3.092500e-01 -3.610352e-06
3.101000e-01 -3.565450e-06
3.109500e-01 -3.517160e-06
3.118000e-01 -3.465078e-06
3.126500e-01 -3.408736e-06
3.135000e-01 -3.347656e-06
3.143500e-01 -3.281361e-06
3.152000e-01 -3.209417e-06
3.160500e-01 -3.131452e-06
3.169000e-01 -3.047199e-06
3.177500e-01 -2.956502e-06
3.186000e-01 -2.859347e-06
3.194500e-01 -2.755867e-06
3.203000e-01 -2.646354e-06
3.211500e-01 -2.531256e-06
3.220000e-01 -2.411164e-06
3.228500e-01 -2.286820e-06
3.237000e-01 -2.159079e-06
3.245500e-01 -2.028906e-06
3.254000e-01 -1.897348e-06
3.262500e-01 -1.765512e-06
3.271000e-01 -1.634533e-06
3.279500e-01 -1.505547e-06
3.288000e-01 -1.379655e-06
3.296500e-01 -1.257888e-06
3.305000e-01 -1.141163e-06
3.313500e-01 -1.030268e-06
3.322000e-01 -9.258053e-07
3.330500e-01 -8.281843e-07
3.339000e-01 -7.375999e-07
3.347500e-01 -6.540149e-07
3.356000e-01 -5.771773e-07
3.364500e-01 -5.066070e-07
3.373000e-01 -4.416211e-07
3.381500e-01 -3.813472e-07
3.390000e-01 -3.247478e-07
3.398500e-01 -2.706305e-07
3.407000e-01 -2.176744e-07
3.415500e-01 -1.644530e-07
3.424000e-01 -1.094581e-07
3.432500e-01 -5.111554e-08
3.441000e-01 1.216236e-08
3.449500e-01 8.196784e-08
3.458000e-01 1.598300e-07
3.466500e-01 2.471891e-07
3.475000e-01 3.453334e-07
3.483500e-01 4.553798e-07
3.492000e-01 5.782068e-07
3.500500e-01 7.144590e-07
3.509000e-01 8.644968e-07
3.517500e-01 1.028402e-06
3.526000e-01 1.205984e-06
3.534500e-01 1.396784e-06
3.543000e-01 1.600097e-06
3.551500e-01 1.814991e-06
3.560000e-01 2.040329e-06
3.568500e-01 2.274793e-06
3.577000e-01 2.516912e-06
3.585500e-01 2.765078e-06
3.594000e-01 3.017578e-06
3.602500e-01 3.272615e-06
3.611000e-01 3.528334e-06
3.619500e-01 3.782863e-06
3.628000e-01 4.034341e-06
3.636500e-01 4.280956e-06
3.645000e-01 4.520986e-06
3.653500e-01 4.752836e-06
3.662000e-01 4.975058e-06
3.670500e-01 5.186386e-06
3.679000e-01 5.385749e-06
3.687500e-01 5.572269e-06
3.696000e-01 5.745263e-06
3.704500e-01 5.904222e-06
3.713000e-01 6.048799e-06
3.721500e-01 6.178776e-06
3.730000e-01 6.294052e-06
3.738500e-01 6.394602e-06
3.747000e-01 6.480474e-06
3.755500e-01 6.551756e-06
3.764000e-01 6.608573e-06
3.772500e-01 6.651082e-06
3.781000e-01 6.679445e-06
3.789500e-01 6.693836e-06
3.798000e-01 6.694429e-06
3.806500e-01 6.681378e-06
3.815000e-01 6.654806e-06
3.823500e-01 6.614791e-06
3.832000e-01 6.561347e-06
3.840500e-01 6.494428e-06
3.849000e-01 6.413902e-06
3.857500e-01 6.319581e-06
3.866000e-01 6.211218e-06
3.874500e-01 6.088540e-06
3.883000e-01 5.951262e-06
3.891500e-01 5.799138e-06
