-1.200000e-01 0.000000e+00
-1.191500e-01 0.000000e+00
-1.183000e-01 0.000000e+00
-1.174500e-01 0.000000e+00
-1.166000e-01 0.000000e+00
-1.157500e-01 0.000000e+00
-1.149000e-01 0.000000e+00
-1.140500e-01 0.000000e+00
-1.132000e-01 0.000000e+00
-1.123500e-01 0.000000e+00
-1.115000e-01 0.000000e+00
-1.106500e-01 0.000000e+00
-1.098000e-01 -2.805199e-39
-1.089500e-01 -6.540154e-38
-1.081000e-01 -7.798286e-37
-1.072500e-01 -6.322715e-36
-1.064000e-01 -3.910226e-35
-1.055500e-01 -1.961585e-34
-1.047000e-01 -8.287178e-34
-1.038500e-01 -3.021207e-33
-1.030000e-01 -9.657921e-33
-1.021500e-01 -2.733955e-32
-1.013000e-01 -6.882906e-32
-1.004500e-01 -1.537809e-31
-9.960000e-02 -3.012425e-31
-9.875000e-02 -5.003955e-31
-9.790000e-02 -6.382335e-31
-9.705000e-02 -3.616386e-31
-9.620000e-02 1.128037e-30
-9.535000e-02 5.284141e-30
-9.450001e-02 1.423062e-29
-9.365001e-02 3.018592e-29
-9.280001e-02 5.368373e-29
-9.195001e-02 7.991518e-29
-9.110001e-02 9.288664e-29
-9.025000e-02 5.826671e-29
-8.940001e-02 -8.190449e-29
-8.855000e-02 -4.060973e-28
-8.770001e-02 -9.916332e-28
-8.685000e-02 -1.862614e-27
-8.600000e-02 -2.899121e-27
-8.515000e-02 -3.712443e-27
-8.430000e-02 -3.517092e-27
-8.345000e-02 -1.068997e-27
-8.260000e-02 5.217281e-27
-8.175001e-02 1.682963e-26
-8.090001e-02 3.426922e-26
-8.005001e-02 5.567743e-26
-7.920000e-02 7.515319e-26
-7.835001e-02 8.126109e-26
-7.750000e-02 5.662893e-26
-7.665001e-02 -2.011753e-26
-7.580000e-02 -1.687413e-25
-7.495001e-02 -3.971842e-25
-7.410000e-02 -6.870367e-25
-7.325000e-02 -9.770435e-25
-7.240000e-02 -1.149820e-24
-7.155000e-02 -1.029895e-24
-7.070000e-02 -4.031884e-25
-6.985001e-02 9.324598e-25
-6.900001e-02 3.080709e-24
-6.815000e-02 5.929038e-24
-6.730001e-02 9.020206e-24
-6.645000e-02 1.145175e-23
-6.560001e-02 1.185994e-23
-6.475000e-02 8.553719e-24
-6.390001e-02 -1.432979e-25
-6.305000e-02 -1.531789e-23
-6.220000e-02 -3.669660e-23
-6.135000e-02 -6.180627e-23
-6.050000e-02 -8.529514e-23
-5.965000e-02 -9.873422e-23
-5.880000e-02 -9.126006e-23
-5.795000e-02 -5.137159e-23
-5.710001e-02 2.998089e-23
-5.625001e-02 1.551915e-22
-5.540001e-02 3.152922e-22
-5.455001e-02 4.858487e-22
-5.370001e-02 6.249887e-22
-5.285000e-02 6.753010e-22
-5.200000e-02 5.711547e-22
-5.115000e-02 2.522652e-22
-5.030000e-02 -3.169851e-22
-4.945000e-02 -1.124788e-21
-4.860000e-02 -2.090115e-21
-4.775000e-02 -3.048175e-21
-4.690000e-02 -3.750480e-21
-4.605000e-02 -3.886544e-21
-4.520001e-02 -3.131891e-21
-4.435001e-02 -1.222428e-21
-4.350001e-02 1.951345e-21
-4.265001e-02 6.244712e-21
-4.180001e-02 1.117571e-20
-4.095000e-02 1.588610e-20
-4.010000e-02 1.917463e-20
-3.925000e-02 1.962568e-20
-3.840000e-02 1.584276e-20
-3.755000e-02 6.776280e-21
-3.670000e-02 -7.891238e-21
-3.585000e-02 -2.736715e-20
-3.500000e-02 -4.946530e-20
-3.415000e-02 -7.051743e-20
-3.330000e-02 -8.557358e-20
-3.245001e-02 -8.895752e-20
-3.160001e-02 -7.519039e-20
-3.075001e-02 -4.022112e-20
-2.990001e-02 1.718420e-20
-2.905000e-02 9.412776e-20
-2.820000e-02 1.826389e-19
-2.735000e-02 2.694298e-19
-2.650000e-02 3.366383e-19
-2.565000e-02 3.637460e-19
-2.480000e-02 3.306822e-19
-2.395000e-02 2.218984e-19
-2.310000e-02 3.093370e-20
-2.225000e-02 -2.352566e-19
-2.140000e-02 -5.531125e-19
-2.055001e-02 -8.813929e-19
-1.970001e-02 -1.163072e-18
-1.885001e-02 -1.330774e-18
-1.800001e-02 -1.315820e-18
-1.715000e-02 -1.060314e-18
-1.630000e-02 -5.309683e-19
-1.545000e-02 2.673119e-19
-1.460000e-02 1.280598e-18
-1.375000e-02 2.400579e-18
-1.290000e-02 3.467192e-18
-1.205000e-02 4.281015e-18
-1.120000e-02 4.626029e-18
-1.035000e-02 4.301661e-18
-9.500004e-03 3.161167e-18
-8.650005e-03 1.151578e-18
-7.800005e-03 -1.651155e-18
-6.950006e-03 -5.018922e-18
-6.100006e-03 -8.567118e-18
-5.250007e-03 -1.177482e-17
-4.400000e-03 -1.403246e-17
-3.550000e-03 -1.471619e-17
-2.700001e-03 -1.328363e-17
-1.850002e-03 -9.381122e-18
-1.000002e-03 -2.947859e-18
-1.500025e-04 5.699808e-18
6.999969e-04 1.582228e-17
1.549996e-03 2.626486e-17
2.399996e-03 3.553179e-17
3.249995e-03 4.192993e-17
4.099995e-03 4.377630e-17
4.949994e-03 3.965252e-17
5.799994e-03 2.867848e-17
6.650001e-03 1.076845e-17
7.499993e-03 -1.317212e-17
8.350000e-03 -4.115100e-17
9.199992e-03 -7.013058e-17
1.005000e-02 -9.622947e-17
1.089999e-02 -1.150889e-16
1.175000e-02 -1.223858e-16
1.259999e-02 -1.144489e-16
1.345000e-02 -8.891365e-17
1.430000e-02 -4.532909e-17
1.515000e-02 1.437573e-17
1.600000e-02 8.565869e-17
1.684999e-02 1.614431e-16
1.770000e-02 2.325564e-16
1.854999e-02 2.885396e-16
1.940000e-02 3.187870e-16
2.024999e-02 3.139245e-16
2.110000e-02 2.672908e-16
2.194999e-02 1.763366e-16
2.280000e-02 4.375116e-17
2.364999e-02 -1.218886e-16
2.450000e-02 -3.061099e-16
2.535000e-02 -4.892950e-16
2.620000e-02 -6.482247e-16
2.705000e-02 -7.583547e-16
2.790000e-02 -7.966601e-16
2.875000e-02 -7.447840e-16
2.959999e-02 -5.921453e-16
3.045000e-02 -3.386094e-16
3.129999e-02 3.684235e-18
3.215000e-02 4.096969e-16
3.299999e-02 8.423408e-16
3.385000e-02 1.254932e-15
3.469999e-02 1.595201e-15
3.555000e-02 1.810608e-15
3.639999e-02 1.854531e-15
3.725000e-02 1.692702e-15
3.810000e-02 1.309176e-15
3.895000e-02 7.110322e-16
3.980000e-02 -6.890700e-17
4.065000e-02 -9.719610e-16
4.150000e-02 -1.916444e-15
4.234999e-02 -2.803577e-15
4.320000e-02 -3.526168e-15
4.404999e-02 -3.979453e-15
4.490000e-02 -4.073117e-15
4.574999e-02 -3.743286e-15
4.660000e-02 -2.963127e-15
4.744999e-02 -1.750693e-15
4.830000e-02 -1.728065e-16
4.914999e-02 1.655915e-15
5.000000e-02 3.579336e-15
5.085000e-02 5.411264e-15
5.170000e-02 6.951424e-15
5.255000e-02 8.004671e-15
5.339999e-02 8.401701e-15
5.425000e-02 8.019233e-15
5.509999e-02 6.797447e-15
5.595000e-02 4.752659e-15
5.679999e-02 1.983498e-15
5.765000e-02 -1.330569e-15
5.849999e-02 -4.938771e-15
5.935000e-02 -8.536284e-15
6.019999e-02 -1.178800e-14
6.105000e-02 -1.435698e-14
6.190000e-02 -1.593506e-14
6.275000e-02 -1.627302e-14
6.360000e-02 -1.520740e-14
6.445000e-02 -1.268151e-14
6.530000e-02 -8.758580e-15
6.614999e-02 -3.625533e-15
6.700000e-02 2.413078e-15
6.784999e-02 8.950839e-15
6.870000e-02 1.550403e-14
6.954999e-02 2.154330e-14
7.040000e-02 2.653048e-14
7.124999e-02 2.995795e-14
7.210000e-02 3.138847e-14
7.294999e-02 3.049247e-14
7.380000e-02 2.708100e-14
7.465000e-02 2.113187e-14
7.550000e-02 1.280718e-14
7.635000e-02 2.460605e-15
7.720000e-02 -9.366788e-15
7.805000e-02 -2.196346e-14
7.889999e-02 -3.447732e-14
7.975000e-02 -4.595876e-14
8.059999e-02 -5.541590e-14
8.145000e-02 -6.188033e-14
8.229999e-02 -6.448038e-14
8.315000e-02 -6.251790e-14
8.399999e-02 -5.554347e-14
8.485000e-02 -4.342395e-14
8.570001e-02 -2.639562e-14
8.655000e-02 -5.096618e-15
8.740000e-02 1.942738e-14
8.825000e-02 4.574878e-14
8.910000e-02 7.211743e-14
8.995000e-02 9.655333e-14
9.080000e-02 1.169699e-13
9.164999e-02 1.313211e-13
9.250000e-02 1.377629e-13
9.334999e-02 1.348185e-13
9.420000e-02 1.215333e-13
9.504999e-02 9.760617e-14
9.590000e-02 6.348482e-14
9.674999e-02 2.041447e-14
9.760000e-02 -2.956846e-14
9.845001e-02 -8.370090e-14
9.930000e-02 -1.386158e-13
1.001500e-01 -1.905188e-13
1.010000e-01 -2.354083e-13
1.018500e-01 -2.693302e-13
1.027000e-01 -2.886489e-13
1.035500e-01 -2.903221e-13
1.044000e-01 -2.721599e-13
1.052500e-01 -2.330524e-13
1.061000e-01 -1.731538e-13
1.069500e-01 -9.400305e-14
1.078000e-01 1.424598e-15
1.086500e-01 1.087484e-13
1.095000e-01 2.222998e-13
1.103500e-01 3.353318e-13
1.112000e-01 4.403172e-13
1.120500e-01 5.293322e-13
1.129000e-01 5.945130e-13
1.137500e-01 6.285681e-13
1.146000e-01 6.253223e-13
1.154500e-01 5.802608e-13
1.163000e-01 4.910389e-13
1.171500e-01 3.579141e-13
1.180000e-01 1.840639e-13
1.188500e-01 -2.425531e-14
1.197000e-01 -2.577356e-13
1.205500e-01 -5.042581e-13
1.214000e-01 -7.493555e-13
1.222500e-01 -9.768877e-13
1.231000e-01 -1.169915e-12
1.239500e-01 -1.311714e-12
1.248000e-01 -1.386903e-12
1.256500e-01 -1.382585e-12
1.265000e-01 -1.289451e-12
1.273500e-01 -1.102765e-12
1.282000e-01 -8.231488e-13
1.290500e-01 -4.571096e-13
1.299000e-01 -1.725582e-14
1.307500e-01 4.778391e-13
1.316000e-01 1.004137e-12
1.324500e-01 1.533008e-12
1.333000e-01 2.032445e-12
1.341500e-01 2.468600e-12
1.350000e-01 2.807566e-12
1.358500e-01 3.017355e-12
1.367000e-01 3.069964e-12
1.375500e-01 2.943456e-12
1.384000e-01 2.623908e-12
1.392500e-01 2.107156e-12
1.401000e-01 1.400167e-12
1.409500e-01 5.219368e-13
1.418000e-01 -4.961854e-13
1.426500e-01 -1.610867e-12
1.435000e-01 -2.767906e-12
1.443500e-01 -3.904131e-12
1.452000e-01 -4.950062e-12
1.460500e-01 -5.833270e-12
1.469000e-01 -6.482316e-12
1.477500e-01 -6.831113e-12
1.486000e-01 -6.823418e-12
1.494500e-01 -6.417294e-12
1.503000e-01 -5.589180e-12
1.511500e-01 -4.337293e-12
1.520000e-01 -2.684125e-12
1.528500e-01 -6.777417e-13
1.537000e-01 1.608258e-12
1.545500e-01 4.076266e-12
1.554000e-01 6.607691e-12
1.562500e-01 9.067448e-12
1.571000e-01 1.130979e-11
1.579500e-01 1.318520e-11
1.588000e-01 1.454824e-11
1.596500e-01 1.526570e-11
1.605000e-01 1.522504e-11
1.613500e-01 1.434247e-11
1.622000e-01 1.257031e-11
1.630500e-01 9.903189e-12
1.639000e-01 6.382844e-12
1.647500e-01 2.100879e-12
1.656000e-01 -2.800638e-12
1.664500e-01 -8.131058e-12
1.673000e-01 -1.365575e-11
1.681500e-01 -1.910342e-11
1.690000e-01 -2.417620e-11
1.698500e-01 -2.856222e-11
1.707000e-01 -3.195045e-11
1.715500e-01 -3.404706e-11
1.724000e-01 -3.459300e-11
1.732500e-01 -3.338138e-11
1.741000e-01 -3.027441e-11
1.749500e-01 -2.521811e-11
1.758000e-01 -1.825438e-11
1.766500e-01 -9.529037e-12
1.775000e-01 7.048552e-13
1.783500e-01 1.208905e-11
1.792000e-01 2.416792e-11
1.800500e-01 3.640213e-11
1.809000e-01 4.818792e-11
1.817500e-01 5.888127e-11
1.826000e-01 6.782640e-11
1.834500e-01 7.438701e-11
1.843000e-01 7.797955e-11
1.851500e-01 7.810639e-11
1.860000e-01 7.438783e-11
1.868500e-01 6.659134e-11
1.877000e-01 5.465638e-11
1.885500e-01 3.871362e-11
1.894000e-01 1.909718e-11
1.902500e-01 -3.651288e-12
1.911000e-01 -2.878742e-11
1.919500e-01 -5.537862e-11
1.928000e-01 -8.232854e-11
1.936500e-01 -1.084113e-10
1.945000e-01 -1.323157e-10
1.953500e-01 -1.526973e-10
1.962000e-01 -1.682379e-10
1.970500e-01 -1.777103e-10
1.979000e-01 -1.800448e-10
1.987500e-01 -1.743958e-10
1.996000e-01 -1.602045e-10
2.004500e-01 -1.372538e-10
2.013000e-01 -1.057133e-10
2.021500e-01 -6.616966e-11
2.030000e-01 -1.964142e-11
2.038500e-01 3.242578e-11
2.047000e-01 8.818315e-11
2.055500e-01 1.454232e-10
2.064000e-01 2.016437e-10
2.072500e-01 2.541302e-10
2.081000e-01 3.000545e-10
2.089500e-01 3.365853e-10
2.098000e-01 3.610099e-10
2.106500e-01 3.708585e-10
2.115000e-01 3.640319e-10
2.123500e-01 3.389221e-10
2.132000e-01 2.945255e-10
2.140500e-01 2.305411e-10
2.149000e-01 1.474489e-10
2.157500e-01 4.656561e-11
2.166000e-01 -6.992854e-11
2.174500e-01 -1.989943e-10
2.183000e-01 -3.367714e-10
2.191500e-01 -4.786531e-10
2.200000e-01 -6.193953e-10
2.208500e-01 -7.532615e-10
2.217000e-01 -8.741995e-10
2.225500e-01 -9.760439e-10
2.234000e-01 -1.052744e-09
2.242500e-01 -1.098605e-09
2.251000e-01 -1.108537e-09
2.259500e-01 -1.078303e-09
2.268000e-01 -1.004763e-09
2.276500e-01 -8.860924e-10
2.285000e-01 -7.219879e-10
2.293500e-01 -5.138339e-10
2.302000e-01 -2.648409e-10
2.310500e-01 1.985524e-11
2.319000e-01 3.331313e-10
2.327500e-01 6.658495e-10
2.336000e-01 1.006865e-09
2.344500e-01 1.343055e-09
2.353000e-01 1.659373e-09
2.361500e-01 1.938902e-09
2.370000e-01 2.162911e-09
2.378500e-01 2.310879e-09
2.387000e-01 2.360496e-09
2.395500e-01 2.287595e-09
2.404000e-01 2.066007e-09
2.412500e-01 1.667315e-09
2.421000e-01 1.060467e-09
2.429500e-01 2.112504e-10
2.438000e-01 -9.184410e-10
2.446500e-01 -2.371524e-09
2.455000e-01 -4.196925e-09
2.463500e-01 -6.451016e-09
2.472000e-01 -9.199383e-09
2.480500e-01 -1.251892e-08
2.489000e-01 -1.650029e-08
2.497500e-01 -2.125075e-08
2.506000e-01 -2.689750e-08
2.514500e-01 -3.359142e-08
2.523000e-01 -4.151132e-08
2.531500e-01 -5.086881e-08
2.540000e-01 -6.191367e-08
2.548500e-01 -7.493994e-08
2.557000e-01 -9.029262e-08
2.565500e-01 -1.083753e-07
2.574000e-01 -1.296582e-07
2.582500e-01 -1.546874e-07
2.591000e-01 -1.840951e-07
2.599500e-01 -2.186106e-07
2.608000e-01 -2.590719e-07
2.616500e-01 -3.064399e-07
2.625000e-01 -3.618120e-07
2.633500e-01 -4.264384e-07
2.642000e-01 -5.017384e-07
2.650500e-01 -5.893201e-07
2.659000e-01 -6.909991e-07
2.667500e-01 -8.088210e-07
2.676000e-01 -9.450831e-07
2.684500e-01 -1.102360e-06
2.693000e-01 -1.283529e-06
2.701500e-01 -1.491798e-06
2.710000e-01 -1.730733e-06
2.718500e-01 -2.004292e-06
2.727000e-01 -2.316850e-06
2.735500e-01 -2.673238e-06
2.744000e-01 -3.078772e-06
2.752500e-01 -3.539287e-06
2.761000e-01 -4.061174e-06
2.769500e-01 -4.651406e-06
2.778000e-01 -5.317580e-06
2.786500e-01 -6.067944e-06
2.795000e-01 -6.911423e-06
2.803500e-01 -7.857654e-06
2.812000e-01 -8.917000e-06
2.820500e-01 -1.010057e-05
2.829000e-01 -1.142025e-05
2.837500e-01 -1.288869e-05
2.846000e-01 -1.451929e-05
2.854500e-01 -1.632624e-05
2.863000e-01 -1.832446e-05
2.871500e-01 -2.052959e-05
2.880000e-01 -2.295793e-05
2.888500e-01 -2.562640e-05
2.897000e-01 -2.855245e-05
2.905500e-01 -3.175403e-05
2.914000e-01 -3.524935e-05
2.922500e-01 -3.905691e-05
2.931000e-01 -4.319527e-05
2.939500e-01 -4.768284e-05
2.948000e-01 -5.253778e-05
2.956500e-01 -5.777770e-05
2.965000e-01 -6.341946e-05
2.973500e-01 -6.947894e-05
2.982000e-01 -7.597062e-05
2.990500e-01 -8.290736e-05
2.999000e-01 -9.030007e-05
3.007500e-01 -9.815731e-05
3.016000e-01 -1.064848e-04
3.024500e-01 -1.152853e-04
3.033000e-01 -1.245578e-04
3.041500e-01 -1.342975e-04
3.050000e-01 -1.444949e-04
3.058500e-01 -1.551358e-04
3.067000e-01 -1.662005e-04
3.075500e-01 -1.776638e-04
3.084000e-01 -1.894939e-04
3.092500e-01 -2.016527e-04
3.101000e-01 -2.140948e-04
3.109500e-01 -2.267679e-04
3.118000e-01 -2.396114e-04
3.126500e-01 -2.525576e-04
3.135000e-01 -2.655301e-04
3.143500e-01 -2.784447e-04
3.152000e-01 -2.912086e-04
3.160500e-01 -3.037214e-04
3.169000e-01 -3.158743e-04
3.177500e-01 -3.275510e-04
3.186000e-01 -3.386278e-04
3.194500e-01 -3.489739e-04
3.203000e-01 -3.584525e-04
3.211500e-01 -3.669213e-04
3.220000e-01 -3.742334e-04
3.228500e-01 -3.802382e-04
3.237000e-01 -3.847827e-04
3.245500e-01 -3.877125e-04
3.254000e-01 -3.888735e-04
3.262500e-01 -3.881133e-04
3.271000e-01 -3.852826e-04
3.279500e-01 -3.802372e-04
3.288000e-01 -3.728393e-04
3.296500e-01 -3.629600e-04
3.305000e-01 -3.504805e-04
3.313500e-01 -3.352942e-04
3.322000e-01 -3.173095e-04
3.330500e-01 -2.964499e-04
3.339000e-01 -2.726574e-04
3.347500e-01 -2.458935e-04
3.356000e-01 -2.161412e-04
3.364500e-01 -1.834061e-04
3.373000e-01 -1.477186e-04
3.381500e-01 -1.091340e-04
3.390000e-01 -6.773465e-05
3.398500e-01 -2.362988e-05
3.407000e-01 2.304309e-05
3.415500e-01 7.211886e-05
3.424000e-01 1.234041e-04
3.432500e-01 1.766776e-04
3.441000e-01 2.316914e-04
3.449500e-01 2.881708e-04
3.458000e-01 3.458170e-04
3.466500e-01 4.043075e-04
3.475000e-01 4.632989e-04
3.483500e-01 5.224287e-04
3.492000e-01 5.813179e-04
3.500500e-01 6.395744e-04
3.509000e-01 6.967951e-04
3.517500e-01 7.525703e-04
3.526000e-01 8.064865e-04
3.534500e-01 8.581306e-04
3.543000e-01 9.070932e-04
3.551500e-01 9.529729e-04
3.560000e-01 9.953806e-04
3.568500e-01 1.033942e-03
3.577000e-01 1.068304e-03
3.585500e-01 1.098137e-03
3.594000e-01 1.123136e-03
3.602500e-01 1.143029e-03
3.611000e-01 1.157579e-03
3.619500e-01 1.166583e-03
3.628000e-01 1.169879e-03
3.636500e-01 1.167346e-03
3.645000e-01 1.158909e-03
3.653500e-01 1.144532e-03
3.662000e-01 1.124232e-03
3.670500e-01 1.098068e-03
3.679000e-01 1.066148e-03
3.687500e-01 1.028622e-03
3.696000e-01 9.856902e-04
3.704500e-01 9.375923e-04
3.713000e-01 8.846120e-04
3.721500e-01 8.270713e-04
3.730000e-01 7.653288e-04
3.738500e-01 6.997769e-04
3.747000e-01 6.308378e-04
3.755500e-01 5.589588e-04
3.764000e-01 4.846104e-04
3.772500e-01 4.082803e-04
3.781000e-01 3.304691e-04
3.789500e-01 2.516854e-04
3.798000e-01 1.724423e-04
3.806500e-01 9.325142e-05
3.815000e-01 1.461870e-05
3.823500e-01 -6.295988e-05
3.832000e-01 -1.390032e-04
3.840500e-01 -2.130491e-04
3.849000e-01 -2.846577e-04
3.857500e-01 -3.534166e-04
3.866000e-01 -4.189419e-04
3.874500e-01 -4.808833e-04
3.883000e-01 -5.389258e-04
3.891500e-01 -5.927907e-04
