-1.200000e-01 0.000000e+00
-1.191500e-01 0.000000e+00
-1.183000e-01 0.000000e+00
-1.174500e-01 -1.678756e-19
-1.166000e-01 -1.120576e-18
-1.157500e-01 -4.238655e-18
-1.149000e-01 -1.197733e-17
-1.140500e-01 -2.817357e-17
-1.132000e-01 -5.827051e-17
-1.123500e-01 -1.091546e-16
-1.115000e-01 -1.880572e-16
-1.106500e-01 -2.999883e-16
-1.098000e-01 -4.437262e-16
-1.089500e-01 -6.075225e-16
-1.081000e-01 -7.670193e-16
-1.072500e-01 -8.885779e-16
-1.064000e-01 -9.403354e-16
-1.055500e-01 -9.102416e-16
-1.047000e-01 -8.255083e-16
-1.038500e-01 -7.630105e-16
-1.030000e-01 -8.380166e-16
-1.021500e-01 -1.162040e-15
-1.013000e-01 -1.771171e-15
-1.004500e-01 -2.542614e-15
-9.960000e-02 -3.134474e-15
-9.875000e-02 -2.994096e-15
-9.790000e-02 -1.474778e-15
-9.705000e-02 1.926176e-15
-9.620000e-02 7.242652e-15
-9.535000e-02 1.372005e-14
-9.450001e-02 1.964079e-14
-9.365001e-02 2.244856e-14
-9.280001e-02 1.928301e-14
-9.195001e-02 7.929441e-15
-9.110001e-02 -1.197111e-14
-9.025000e-02 -3.778060e-14
-8.940001e-02 -6.325084e-14
-8.855000e-02 -7.891870e-14
-8.770001e-02 -7.384704e-14
-8.685000e-02 -3.872805e-14
-8.600000e-02 3.009654e-14
-8.515000e-02 1.266414e-13
-8.430000e-02 2.326420e-13
-8.345000e-02 3.177156e-13
-8.260000e-02 3.434520e-13
-8.175001e-02 2.717958e-13
-8.090001e-02 7.691761e-14
-8.005001e-02 -2.415596e-13
-7.920000e-02 -6.472836e-13
-7.835001e-02 -1.061771e-12
-7.750000e-02 -1.368524e-12
-7.665001e-02 -1.428936e-12
-7.580000e-02 -1.109869e-12
-7.495001e-02 -3.197137e-13
-7.410000e-02 9.534042e-13
-7.325000e-02 2.609942e-12
-7.240000e-02 4.423335e-12
-7.155000e-02 6.048747e-12
-7.070000e-02 7.060874e-12
-6.985001e-02 7.020046e-12
-6.900001e-02 5.559342e-12
-6.815000e-02 2.479171e-12
-6.730001e-02 -2.168647e-12
-6.645000e-02 -8.026676e-12
-6.560001e-02 -1.442432e-11
-6.475000e-02 -2.042718e-11
-6.390001e-02 -2.494406e-11
-6.305000e-02 -2.688074e-11
-6.220000e-02 -2.532008e-11
-6.135000e-02 -1.969945e-11
-6.050000e-02 -9.954803e-12
-5.965000e-02 3.396982e-12
-5.880000e-02 1.925664e-11
-5.795000e-02 3.602883e-11
-5.710001e-02 5.178790e-11
-5.625001e-02 6.450201e-11
-5.540001e-02 7.228378e-11
-5.455001e-02 7.363187e-11
-5.370001e-02 6.762984e-11
-5.285000e-02 5.407630e-11
-5.200000e-02 3.353177e-11
-5.115000e-02 7.281039e-12
-5.030000e-02 -2.277942e-11
-4.945000e-02 -5.431088e-11
-4.860000e-02 -8.473737e-11
-4.775000e-02 -1.114656e-10
-4.690000e-02 -1.321029e-10
-4.605000e-02 -1.446605e-10
-4.520001e-02 -1.477324e-10
-4.435001e-02 -1.406415e-10
-4.350001e-02 -1.235422e-10
-4.265001e-02 -9.746656e-11
-4.180001e-02 -6.429810e-11
-4.095000e-02 -2.666037e-11
-4.010000e-02 1.228566e-11
-3.925000e-02 4.912898e-11
-3.840000e-02 8.055653e-11
-3.755000e-02 1.037187e-10
-3.670000e-02 1.165585e-10
-3.585000e-02 1.180418e-10
-3.500000e-02 1.082387e-10
-3.415000e-02 8.822421e-11
-3.330000e-02 5.980280e-11
-3.245001e-02 2.509543e-11
-3.160001e-02 -1.393155e-11
-3.075001e-02 -5.590063e-11
-2.990001e-02 -1.003163e-10
-2.905000e-02 -1.476358e-10
-2.820000e-02 -1.990859e-10
-2.735000e-02 -2.562368e-10
-2.650000e-02 -3.204224e-10
-2.565000e-02 -3.921340e-10
-2.480000e-02 -4.705394e-10
-2.395000e-02 -5.532746e-10
-2.310000e-02 -6.366120e-10
-2.225000e-02 -7.160310e-10
-2.140000e-02 -7.870915e-10
-2.055001e-02 -8.464989e-10
-1.970001e-02 -8.931058e-10
-1.885001e-02 -9.286105e-10
-1.800001e-02 -9.577649e-10
-1.715000e-02 -9.878952e-10
-1.630000e-02 -1.027858e-09
-1.545000e-02 -1.086357e-09
-1.460000e-02 -1.170154e-09
-1.375000e-02 -1.282245e-09
-1.290000e-02 -1.420528e-09
-1.205000e-02 -1.577221e-09
-1.120000e-02 -1.739200e-09
-1.035000e-02 -1.889327e-09
-9.500004e-03 -2.008454e-09
-8.650005e-03 -2.077917e-09
-7.800005e-03 -2.081921e-09
-6.950006e-03 -2.009278e-09
-6.100006e-03 -1.854632e-09
-5.250007e-03 -1.617515e-09
-4.400000e-03 -1.301325e-09
-3.550000e-03 -9.101574e-10
-2.700001e-03 -4.455817e-10
-1.850002e-03 9.700595e-11
-1.000002e-03 7.311499e-10
-1.500025e-04 1.481776e-09
6.999969e-04 2.386227e-09
1.549996e-03 3.493110e-09
2.399996e-03 4.860980e-09
3.249995e-03 6.555460e-09
4.099995e-03 8.647016e-09
4.949994e-03 1.120785e-08
5.799994e-03 1.431006e-08
6.650001e-03 1.802605e-08
7.499993e-03 2.242751e-08
8.350000e-03 2.758965e-08
9.199992e-03 3.359126e-08
1.005000e-02 4.051920e-08
1.089999e-02 4.846952e-08
1.175000e-02 5.755131e-08
1.259999e-02 6.788527e-08
1.345000e-02 7.960466e-08
1.430000e-02 9.285536e-08
1.515000e-02 1.077932e-07
1.600000e-02 1.245850e-07
1.684999e-02 1.434123e-07
1.770000e-02 1.644612e-07
1.854999e-02 1.879424e-07
1.940000e-02 2.140789e-07
2.024999e-02 2.431154e-07
2.110000e-02 2.753192e-07
2.194999e-02 3.109895e-07
2.280000e-02 3.504433e-07
2.364999e-02 3.940422e-07
2.450000e-02 4.421579e-07
2.535000e-02 4.951966e-07
2.620000e-02 5.535804e-07
2.705000e-02 6.177469e-07
2.790000e-02 6.881519e-07
2.875000e-02 7.652643e-07
2.959999e-02 8.495558e-07
3.045000e-02 9.415386e-07
3.129999e-02 1.041712e-06
3.215000e-02 1.150618e-06
3.299999e-02 1.268815e-06
3.385000e-02 1.396883e-06
3.469999e-02 1.535447e-06
3.555000e-02 1.685123e-06
3.639999e-02 1.846566e-06
3.725000e-02 2.020458e-06
3.810000e-02 2.207489e-06
3.895000e-02 2.408364e-06
3.980000e-02 2.623801e-06
4.065000e-02 2.854464e-06
4.150000e-02 3.101092e-06
4.234999e-02 3.364370e-06
4.320000e-02 3.644968e-06
4.404999e-02 3.943520e-06
4.490000e-02 4.260619e-06
4.574999e-02 4.596777e-06
4.660000e-02 4.952498e-06
4.744999e-02 5.328033e-06
4.830000e-02 5.723584e-06
4.914999e-02 6.139352e-06
5.000000e-02 6.575107e-06
5.085000e-02 7.030664e-06
5.170000e-02 7.505531e-06
5.255000e-02 7.999150e-06
5.339999e-02 8.510637e-06
5.425000e-02 9.038937e-06
5.509999e-02 9.582859e-06
5.595000e-02 1.014078e-05
5.679999e-02 1.071117e-05
5.765000e-02 1.129201e-05
5.849999e-02 1.188104e-05
5.935000e-02 1.247578e-05
6.019999e-02 1.307352e-05
6.105000e-02 1.367111e-05
6.190000e-02 1.426512e-05
6.275000e-02 1.485206e-05
6.360000e-02 1.542801e-05
6.445000e-02 1.598878e-05
6.530000e-02 1.653004e-05
6.614999e-02 1.704716e-05
6.700000e-02 1.753556e-05
6.784999e-02 1.799007e-05
6.870000e-02 1.840607e-05
6.954999e-02 1.877838e-05
7.040000e-02 1.910199e-05
7.124999e-02 1.937173e-05
7.210000e-02 1.958271e-05
7.294999e-02 1.972982e-05
7.380000e-02 1.980820e-05
7.465000e-02 1.981349e-05
7.550000e-02 1.974152e-05
7.635000e-02 1.958815e-05
7.720000e-02 1.934965e-05
7.805000e-02 1.902324e-05
7.889999e-02 1.860635e-05
7.975000e-02 1.809660e-05
8.059999e-02 1.749266e-05
8.145000e-02 1.679405e-05
8.229999e-02 1.600020e-05
8.315000e-02 1.511156e-05
8.399999e-02 1.412916e-05
8.485000e-02 1.305498e-05
8.570001e-02 1.189148e-05
8.655000e-02 1.064150e-05
8.740000e-02 9.309084e-06
8.825000e-02 7.898788e-06
8.910000e-02 6.415541e-06
8.995000e-02 4.865560e-06
9.080000e-02 3.254826e-06
9.164999e-02 1.590714e-06
9.250000e-02 -1.194844e-07
9.334999e-02 -1.867690e-06
9.420000e-02 -3.645698e-06
9.504999e-02 -5.444819e-06
9.590000e-02 -7.256282e-06
9.674999e-02 -9.071062e-06
9.760000e-02 -1.088013e-05
9.845001e-02 -1.267440e-05
9.930000e-02 -1.444494e-05
1.001500e-01 -1.618277e-05
1.010000e-01 -1.787929e-05
1.018500e-01 -1.952601e-05
1.027000e-01 -2.111484e-05
1.035500e-01 -2.263806e-05
1.044000e-01 -2.408845e-05
1.052500e-01 -2.545949e-05
1.061000e-01 -2.674466e-05
1.069500e-01 -2.793888e-05
1.078000e-01 -2.903700e-05
1.086500e-01 -3.003495e-05
1.095000e-01 -3.092934e-05
1.103500e-01 -3.171737e-05
1.112000e-01 -3.239662e-05
1.120500e-01 -3.296572e-05
1.129000e-01 -3.342373e-05
1.137500e-01 -3.377061e-05
1.146000e-01 -3.400692e-05
1.154500e-01 -3.413334e-05
1.163000e-01 -3.415121e-05
1.171500e-01 -3.406300e-05
1.180000e-01 -3.387131e-05
1.188500e-01 -3.357883e-05
1.197000e-01 -3.318911e-05
1.205500e-01 -3.270580e-05
1.214000e-01 -3.213284e-05
1.222500e-01 -3.147510e-05
1.231000e-01 -3.073640e-05
1.239500e-01 -2.992232e-05
1.248000e-01 -2.903703e-05
1.256500e-01 -2.808581e-05
1.265000e-01 -2.707341e-05
1.273500e-01 -2.600533e-05
1.282000e-01 -2.488643e-05
1.290500e-01 -2.372217e-05
1.299000e-01 -2.251772e-05
1.307500e-01 -2.127831e-05
1.316000e-01 -2.000916e-05
1.324500e-01 -1.871541e-05
1.333000e-01 -1.740191e-05
1.341500e-01 -1.607397e-05
1.350000e-01 -1.473627e-05
1.358500e-01 -1.339350e-05
1.367000e-01 -1.205068e-05
1.375500e-01 -1.071240e-05
1.384000e-01 -9.383270e-06
1.392500e-01 -8.068162e-06
1.401000e-01 -6.771217e-06
1.409500e-01 -5.496958e-06
1.418000e-01 -4.249512e-06
1.426500e-01 -3.032983e-06
1.435000e-01 -1.851422e-06
1.443500e-01 -7.083661e-07
1.452000e-01 3.926552e-07
1.460500e-01 1.448505e-06
1.469000e-01 2.456180e-06
1.477500e-01 3.413017e-06
1.486000e-01 4.316521e-06
1.494500e-01 5.164530e-06
1.503000e-01 5.955074e-06
1.511500e-01 6.686588e-06
1.520000e-01 7.357773e-06
1.528500e-01 7.967685e-06
1.537000e-01 8.515677e-06
1.545500e-01 9.001577e-06
1.554000e-01 9.425508e-06
1.562500e-01 9.788029e-06
1.571000e-01 1.008991e-05
1.579500e-01 1.033252e-05
1.588000e-01 1.051723e-05
1.596500e-01 1.064603e-05
1.605000e-01 1.072092e-05
1.613500e-01 1.074429e-05
1.622000e-01 1.071872e-05
1.630500e-01 1.064705e-05
1.639000e-01 1.053208e-05
1.647500e-01 1.037693e-05
1.656000e-01 1.018492e-05
1.664500e-01 9.959251e-06
1.673000e-01 9.703361e-06
1.681500e-01 9.420745e-06
1.690000e-01 9.114824e-06
1.698500e-01 8.788910e-06
1.707000e-01 8.446629e-06
1.715500e-01 8.091039e-06
1.724000e-01 7.725367e-06
1.732500e-01 7.352539e-06
1.741000e-01 6.975450e-06
1.749500e-01 6.596810e-06
1.758000e-01 6.219062e-06
1.766500e-01 5.844662e-06
1.775000e-01 5.475727e-06
1.783500e-01 5.114469e-06
1.792000e-01 4.762821e-06
1.800500e-01 4.422586e-06
1.809000e-01 4.095498e-06
1.817500e-01 3.783066e-06
1.826000e-01 3.486646e-06
1.834500e-01 3.207368e-06
1.843000e-01 2.946225e-06
1.851500e-01 2.703998e-06
1.860000e-01 2.481305e-06
1.868500e-01 2.278605e-06
1.877000e-01 2.096275e-06
1.885500e-01 1.934391e-06
1.894000e-01 1.793040e-06
1.902500e-01 1.672057e-06
1.911000e-01 1.571333e-06
1.919500e-01 1.490379e-06
1.928000e-01 1.428697e-06
1.936500e-01 1.385552e-06
1.945000e-01 1.359987e-06
1.953500e-01 1.350859e-06
1.962000e-01 1.356923e-06
1.970500e-01 1.376708e-06
1.979000e-01 1.408586e-06
1.987500e-01 1.450876e-06
1.996000e-01 1.501863e-06
2.004500e-01 1.559756e-06
2.013000e-01 1.622742e-06
2.021500e-01 1.689058e-06
2.030000e-01 1.756918e-06
2.038500e-01 1.824552e-06
2.047000e-01 1.890268e-06
2.055500e-01 1.952418e-06
2.064000e-01 2.009427e-06
2.072500e-01 2.059846e-06
2.081000e-01 2.102371e-06
2.089500e-01 2.135877e-06
2.098000e-01 2.159484e-06
2.106500e-01 2.172510e-06
2.115000e-01 2.174532e-06
2.123500e-01 2.165421e-06
2.132000e-01 2.145242e-06
2.140500e-01 2.114341e-06
2.149000e-01 2.073212e-06
2.157500e-01 2.022589e-06
2.166000e-01 1.963338e-06
2.174500e-01 1.896469e-06
2.183000e-01 1.823141e-06
2.191500e-01 1.744645e-06
2.200000e-01 1.662352e-06
2.208500e-01 1.577760e-06
2.217000e-01 1.492404e-06
2.225500e-01 1.407879e-06
2.234000e-01 1.325799e-06
2.242500e-01 1.247724e-06
2.251000e-01 1.175160e-06
2.259500e-01 1.109521e-06
2.268000e-01 1.052107e-06
2.276500e-01 1.004061e-06
2.285000e-01 9.663464e-07
2.293500e-01 9.398295e-07
2.302000e-01 9.251934e-07
2.310500e-01 9.229829e-07
2.319000e-01 9.336575e-07
2.327500e-01 9.575034e-07
2.336000e-01 9.947455e-07
2.344500e-01 1.045453e-06
2.353000e-01 1.109574e-06
2.361500e-01 1.186972e-06
2.370000e-01 1.277341e-06
2.378500e-01 1.380252e-06
2.387000e-01 1.495175e-06
2.395500e-01 1.621438e-06
2.404000e-01 1.758311e-06
2.412500e-01 1.904964e-06
2.421000e-01 2.060563e-06
2.429500e-01 2.224205e-06
2.438000e-01 2.394971e-06
2.446500e-01 2.571961e-06
2.455000e-01 2.754196e-06
2.463500e-01 2.940686e-06
2.472000e-01 3.130367e-06
2.480500e-01 3.322092e-06
2.489000e-01 3.514599e-06
2.497500e-01 3.706488e-06
2.506000e-01 3.896283e-06
2.514500e-01 4.082364e-06
2.523000e-01 4.263018e-06
2.531500e-01 4.436465e-06
2.540000e-01 4.600873e-06
2.548500e-01 4.754408e-06
2.557000e-01 4.895227e-06
2.565500e-01 5.021498e-06
2.574000e-01 5.131434e-06
2.582500e-01 5.223276e-06
2.591000e-01 5.295300e-06
2.599500e-01 5.345833e-06
2.608000e-01 5.373285e-06
2.616500e-01 5.376156e-06
2.625000e-01 5.353090e-06
2.633500e-01 5.302902e-06
2.642000e-01 5.224655e-06
2.650500e-01 5.117674e-06
2.659000e-01 4.981635e-06
2.667500e-01 4.816532e-06
2.676000e-01 4.622739e-06
2.684500e-01 4.400986e-06
2.693000e-01 4.152367e-06
2.701500e-01 3.878284e-06
2.710000e-01 3.580426e-06
2.718500e-01 3.260773e-06
2.727000e-01 2.921504e-06
2.735500e-01 2.565033e-06
2.744000e-01 2.193948e-06
2.752500e-01 1.811015e-06
2.761000e-01 1.419144e-06
2.769500e-01 1.021372e-06
2.778000e-01 6.208263e-07
2.786500e-01 2.206679e-07
2.795000e-01 -1.759580e-07
2.803500e-01 -5.659674e-07
2.812000e-01 -9.464270e-07
2.820500e-01 -1.314590e-06
2.829000e-01 -1.667964e-06
2.837500e-01 -2.004331e-06
2.846000e-01 -2.321778e-06
2.854500e-01 -2.618706e-06
2.863000e-01 -2.893821e-06
2.871500e-01 -3.146130e-06
2.880000e-01 -3.374908e-06
2.888500e-01 -3.579703e-06
2.897000e-01 -3.760307e-06
2.905500e-01 -3.916740e-06
2.914000e-01 -4.049248e-06
2.922500e-01 -4.158289e-06
2.931000e-01 -4.244508e-06
2.939500e-01 -4.308718e-06
2.948000e-01 -4.351883e-06
2.956500e-01 -4.375065e-06
2.965000e-01 -4.379396e-06
2.973500e-01 -4.366029e-06
2.982000e-01 -4.336108e-06
2.990500e-01 -4.290730e-06
2.999000e-01 -4.230922e-06
3.007500e-01 -4.157631e-06
3.016000e-01 -4.071718e-06
3.024500e-01 -3.973963e-06
3.033000e-01 -3.865075e-06
3.041500e-01 -3.745705e-06
3.050000e-01 -3.616462e-06
3.058500e-01 -3.477922e-06
3.067000e-01 -3.330631e-06
3.075500e-01 -3.175118e-06
3.084000e-01 -3.011898e-06
3.092500e-01 -2.841478e-06
3.101000e-01 -2.664366e-06
3.109500e-01 -2.481084e-06
3.118000e-01 -2.292190e-06
3.126500e-01 -2.098289e-06
3.135000e-01 -1.900063e-06
3.143500e-01 -1.698278e-06
3.152000e-01 -1.493798e-06
3.160500e-01 -1.287590e-06
3.169000e-01 -1.080718e-06
3.177500e-01 -8.743216e-07
3.186000e-01 -6.696014e-07
3.194500e-01 -4.677849e-07
3.203000e-01 -2.701029e-07
3.211500e-01 -7.775855e-08
3.220000e-01 1.080947e-07
3.228500e-01 2.863743e-07
3.237000e-01 4.560786e-07
3.245500e-01 6.162950e-07
3.254000e-01 7.662085e-07
3.262500e-01 9.051059e-07
3.271000e-01 1.032385e-06
3.279500e-01 1.147557e-06
3.288000e-01 1.250264e-06
3.296500e-01 1.340288e-06
3.305000e-01 1.417558e-06
3.313500e-01 1.482165e-06
3.322000e-01 1.534341e-06
3.330500e-01 1.574471e-06
3.339000e-01 1.603057e-06
3.347500e-01 1.620697e-06
3.356000e-01 1.628051e-06
3.364500e-01 1.625792e-06
3.373000e-01 1.614593e-06
3.381500e-01 1.595072e-06
3.390000e-01 1.567790e-06
3.398500e-01 1.533222e-06
3.407000e-01 1.491765e-06
3.415500e-01 1.443731e-06
3.424000e-01 1.389361e-06
3.432500e-01 1.328831e-06
3.441000e-01 1.262258e-06
3.449500e-01 1.189712e-06
3.458000e-01 1.111213e-06
3.466500e-01 1.026737e-06
3.475000e-01 9.362137e-07
3.483500e-01 8.395363e-07
3.492000e-01 7.365680e-07
3.500500e-01 6.271599e-07
3.509000e-01 5.111773e-07
3.517500e-01 3.885268e-07
3.526000e-01 2.591911e-07
3.534500e-01 1.232606e-07
3.543000e-01 -1.903462e-08
3.551500e-01 -1.673055e-07
3.560000e-01 -3.209864e-07
3.568500e-01 -4.793327e-07
3.577000e-01 -6.414253e-07
3.585500e-01 -8.061799e-07
3.594000e-01 -9.723684e-07
3.602500e-01 -1.138637e-06
3.611000e-01 -1.303527e-06
3.619500e-01 -1.465500e-06
3.628000e-01 -1.622955e-06
3.636500e-01 -1.774257e-06
3.645000e-01 -1.917751e-06
3.653500e-01 -2.051796e-06
3.662000e-01 -2.174790e-06
3.670500e-01 -2.285203e-06
3.679000e-01 -2.381603e-06
3.687500e-01 -2.462701e-06
3.696000e-01 -2.527376e-06
3.704500e-01 -2.574704e-06
3.713000e-01 -2.603979e-06
3.721500e-01 -2.614739e-06
3.730000e-01 -2.606766e-06
3.738500e-01 -2.580090e-06
3.747000e-01 -2.534992e-06
3.755500e-01 -2.471983e-06
3.764000e-01 -2.391795e-06
3.772500e-01 -2.295360e-06
3.781000e-01 -2.183791e-06
3.789500e-01 -2.058348e-06
3.798000e-01 -1.920421e-06
3.806500e-01 -1.771484e-06
3.815000e-01 -1.613085e-06
3.823500e-01 -1.446796e-06
3.832000e-01 -1.274187e-06
3.840500e-01 -1.096799e-06
3.849000e-01 -9.161147e-07
3.857500e-01 -7.335332e-07
3.866000e-01 -5.503553e-07
3.874500e-01 -3.677684e-07
3.883000e-01 -1.868347e-07
3.891500e-01 -8.491145e-09
