-1.200000e-01 0.000000e+00
-1.191500e-01 0.000000e+00
-1.183000e-01 0.000000e+00
-1.174500e-01 0.000000e+00
-1.166000e-01 0.000000e+00
-1.157500e-01 0.000000e+00
-1.149000e-01 0.000000e+00
-1.140500e-01 0.000000e+00
-1.132000e-01 0.000000e+00
-1.123500e-01 0.000000e+00
-1.115000e-01 0.000000e+00
-1.106500e-01 0.000000e+00
-1.098000e-01 0.000000e+00
-1.089500e-01 -1.572257e-42
-1.081000e-01 -3.590827e-41
-1.072500e-01 -4.110807e-40
-1.064000e-01 -3.131363e-39
-1.055500e-01 -1.775573e-38
-1.047000e-01 -7.931289e-38
-1.038500e-01 -2.872075e-37
-1.030000e-01 -8.492244e-37
-1.021500e-01 -2.005623e-36
-1.013000e-01 -3.422404e-36
-1.004500e-01 -2.122828e-36
-9.960000e-02 1.254771e-35
-9.875000e-02 6.829676e-35
-9.790000e-02 2.224889e-34
-9.705000e-02 5.696721e-34
-9.620000e-02 1.222075e-33
-9.535000e-02 2.222874e-33
-9.450001e-02 3.338811e-33
-9.365001e-02 3.691177e-33
-9.280001e-02 1.252580e-33
-9.195001e-02 -7.609721e-33
-9.110001e-02 -2.811923e-32
-9.025000e-02 -6.589379e-32
-8.940001e-02 -1.236594e-31
-8.855000e-02 -1.950783e-31
-8.770001e-02 -2.555992e-31
-8.685000e-02 -2.517885e-31
-8.600000e-02 -9.311791e-32
-8.515000e-02 3.465660e-31
-8.430000e-02 1.207419e-30
-8.345000e-02 2.589582e-30
-8.260000e-02 4.456540e-30
-8.175001e-02 6.494560e-30
-8.090001e-02 7.945879e-30
-8.005001e-02 7.464531e-30
-7.920000e-02 3.085125e-30
-7.835001e-02 -7.562434e-30
-7.750000e-02 -2.663530e-29
-7.665001e-02 -5.492607e-29
-7.580000e-02 -9.016059e-29
-7.495001e-02 -1.249618e-28
-7.410000e-02 -1.450504e-28
-7.325000e-02 -1.286697e-28
-7.240000e-02 -4.856402e-29
-7.155000e-02 1.221173e-28
-7.070000e-02 3.991266e-28
-6.985001e-02 7.720577e-28
-6.900001e-02 1.187421e-27
-6.815000e-02 1.534943e-27
-6.730001e-02 1.644573e-27
-6.645000e-02 1.302747e-27
-6.560001e-02 2.950445e-28
-6.475000e-02 -1.522721e-27
-6.390001e-02 -4.131703e-27
-6.305000e-02 -7.253824e-27
-6.220000e-02 -1.028210e-26
-6.135000e-02 -1.227497e-26
-6.050000e-02 -1.205111e-26
-5.965000e-02 -8.407358e-27
-5.880000e-02 -4.549937e-28
-5.795000e-02 1.196966e-26
-5.710001e-02 2.790678e-26
-5.625001e-02 4.500794e-26
-5.540001e-02 5.953761e-26
-5.455001e-02 6.675195e-26
-5.370001e-02 6.170163e-26
-5.285000e-02 4.040326e-26
-5.200000e-02 1.201154e-27
-5.115000e-02 -5.397557e-26
-5.030000e-02 -1.188293e-25
-4.945000e-02 -1.827487e-25
-4.860000e-02 -2.319594e-25
-4.775000e-02 -2.518168e-25
-4.690000e-02 -2.299900e-25
-4.605000e-02 -1.599678e-25
-4.520001e-02 -4.404448e-26
-4.435001e-02 1.051787e-25
-4.350001e-02 2.656406e-25
-4.265001e-02 4.094990e-25
-4.180001e-02 5.094640e-25
-4.095000e-02 5.467576e-25
-4.010000e-02 5.187778e-25
-3.925000e-02 4.438657e-25
-3.840000e-02 3.603659e-25
-3.755000e-02 3.177461e-25
-3.670000e-02 3.590584e-25
-3.585000e-02 4.965229e-25
-3.500000e-02 6.851998e-25
-3.415000e-02 8.029930e-25
-3.330000e-02 6.476190e-25
-3.245001e-02 -3.853406e-26
-3.160001e-02 -1.507759e-24
-3.075001e-02 -3.909883e-24
-2.990001e-02 -7.169268e-24
-2.905000e-02 -1.086081e-23
-2.820000e-02 -1.412398e-23
-2.735000e-02 -1.566366e-23
-2.650000e-02 -1.388636e-23
-2.565000e-02 -7.205578e-24
-2.480000e-02 5.483466e-24
-2.395000e-02 2.420976e-23
-2.310000e-02 4.732496e-23
-2.225000e-02 7.106549e-23
-2.140000e-02 8.948829e-23
-2.055001e-02 9.498661e-23
-1.970001e-02 7.952766e-23
-1.885001e-02 3.661815e-23
-1.800001e-02 -3.619815e-23
-1.715000e-02 -1.347456e-22
-1.630000e-02 -2.461876e-22
-1.545000e-02 -3.483699e-22
-1.460000e-02 -4.113351e-22
-1.375000e-02 -4.015697e-22
-1.290000e-02 -2.890613e-22
-1.205000e-02 -5.653792e-23
-1.120000e-02 2.905872e-22
-1.035000e-02 7.158302e-22
-9.500004e-03 1.147615e-21
-8.650005e-03 1.482432e-21
-7.800005e-03 1.597304e-21
-6.950006e-03 1.372165e-21
-6.100006e-03 7.205416e-22
-5.250007e-03 -3.758039e-22
-4.400000e-03 -1.835173e-21
-3.550000e-03 -3.456030e-21
-2.700001e-03 -4.918154e-21
-1.850002e-03 -5.812486e-21
-1.000002e-03 -5.703220e-21
-1.500025e-04 -4.219368e-21
6.999969e-04 -1.165153e-21
1.549996e-03 3.369585e-21
2.399996e-03 8.924256e-21
3.249995e-03 1.463597e-20
4.099995e-03 1.928726e-20
4.949994e-03 2.144968e-20
5.799994e-03 1.972407e-20
6.650001e-03 1.305699e-20
7.499993e-03 1.089561e-21
8.350000e-03 -1.552602e-20
9.199992e-03 -3.492115e-20
1.005000e-02 -5.399616e-20
1.089999e-02 -6.866067e-20
1.175000e-02 -7.435894e-20
1.259999e-02 -6.686032e-20
1.345000e-02 -4.323318e-20
1.430000e-02 -2.858754e-21
1.515000e-02 5.170979e-20
1.600000e-02 1.142634e-19
1.684999e-02 1.750382e-19
1.770000e-02 2.215537e-19
1.854999e-02 2.402392e-19
1.940000e-02 2.187563e-19
2.024999e-02 1.487625e-19
2.110000e-02 2.870542e-20
2.194999e-02 -1.338863e-19
2.280000e-02 -3.211955e-19
2.364999e-02 -5.055245e-19
2.450000e-02 -6.516875e-19
2.535000e-02 -7.214745e-19
2.620000e-02 -6.799163e-19
2.705000e-02 -5.026503e-19
2.790000e-02 -1.833277e-19
2.875000e-02 2.603121e-19
2.959999e-02 7.831562e-19
3.045000e-02 1.313549e-18
3.129999e-02 1.759148e-18
3.215000e-02 2.018018e-18
3.299999e-02 1.994290e-18
3.385000e-02 1.616719e-18
3.469999e-02 8.575359e-19
3.555000e-02 -2.516615e-19
3.639999e-02 -1.610528e-18
3.725000e-02 -3.050300e-18
3.810000e-02 -4.346088e-18
3.895000e-02 -5.241826e-18
3.980000e-02 -5.486481e-18
4.065000e-02 -4.877907e-18
4.150000e-02 -3.308550e-18
4.234999e-02 -8.056254e-19
4.320000e-02 2.442284e-18
4.404999e-02 6.079696e-18
4.490000e-02 9.605287e-18
4.574999e-02 1.242178e-17
4.660000e-02 1.391246e-17
4.744999e-02 1.353730e-17
4.830000e-02 1.093690e-17
4.914999e-02 6.028910e-18
5.000000e-02 -9.204628e-19
5.085000e-02 -9.266299e-18
5.170000e-02 -1.800933e-17
5.255000e-02 -2.588157e-17
5.339999e-02 -3.149140e-17
5.425000e-02 -3.351624e-17
5.509999e-02 -3.092147e-17
5.595000e-02 -2.317569e-17
5.679999e-02 -1.042811e-17
5.765000e-02 6.386694e-18
5.849999e-02 2.554609e-17
5.935000e-02 4.465711e-17
6.019999e-02 6.089772e-17
6.105000e-02 7.136573e-17
6.190000e-02 7.349992e-17
6.275000e-02 6.552150e-17
6.360000e-02 4.683134e-17
6.445000e-02 1.829550e-17
6.530000e-02 -1.764234e-17
6.614999e-02 -5.706683e-17
6.700000e-02 -9.493345e-17
6.784999e-02 -1.256327e-16
6.870000e-02 -1.437251e-16
6.954999e-02 -1.447616e-16
7.040000e-02 -1.260795e-16
7.124999e-02 -8.744924e-17
7.210000e-02 -3.145489e-17
7.294999e-02 3.648781e-17
7.380000e-02 1.085289e-16
7.465000e-02 1.751950e-16
7.550000e-02 2.265471e-16
7.635000e-02 2.535593e-16
7.720000e-02 2.495381e-16
7.805000e-02 2.113789e-16
7.889999e-02 1.404477e-16
7.975000e-02 4.291279e-17
8.059999e-02 -7.059002e-17
8.145000e-02 -1.859867e-16
8.229999e-02 -2.874160e-16
8.315000e-02 -3.593250e-16
8.399999e-02 -3.887469e-16
8.485000e-02 -3.674425e-16
8.570001e-02 -2.935739e-16
8.655000e-02 -1.726132e-16
8.740000e-02 -1.727873e-17
8.825000e-02 1.535899e-16
8.910000e-02 3.171522e-16
8.995000e-02 4.494662e-16
9.080000e-02 5.288145e-16
9.164999e-02 5.390108e-16
9.250000e-02 4.722076e-16
9.334999e-02 3.307597e-16
9.420000e-02 1.277977e-16
9.504999e-02 -1.136729e-16
9.590000e-02 -3.631328e-16
9.674999e-02 -5.861475e-16
9.760000e-02 -7.487925e-16
9.845001e-02 -8.223403e-16
9.930000e-02 -7.875857e-16
1.001500e-01 -6.381841e-16
1.010000e-01 -3.824863e-16
1.018500e-01 -4.353169e-17
1.027000e-01 3.429055e-16
1.035500e-01 7.320559e-16
1.044000e-01 1.075268e-15
1.052500e-01 1.325877e-15
1.061000e-01 1.445076e-15
1.069500e-01 1.407022e-15
1.078000e-01 1.202487e-15
1.086500e-01 8.405270e-16
1.095000e-01 3.479557e-16
1.103500e-01 -2.333352e-16
1.112000e-01 -8.508261e-16
1.120500e-01 -1.446970e-15
1.129000e-01 -1.965157e-15
1.137500e-01 -2.355231e-15
1.146000e-01 -2.577828e-15
1.154500e-01 -2.607063e-15
1.163000e-01 -2.431390e-15
1.171500e-01 -2.052795e-15
1.180000e-01 -1.484843e-15
1.188500e-01 -7.502497e-16
1.197000e-01 1.212337e-16
1.205500e-01 1.094000e-15
1.214000e-01 2.126451e-15
1.222500e-01 3.169626e-15
1.231000e-01 4.165124e-15
1.239500e-01 5.043240e-15
1.248000e-01 5.722534e-15
1.256500e-01 6.111991e-15
1.265000e-01 6.116675e-15
1.273500e-01 5.647233e-15
1.282000e-01 4.632790e-15
1.290500e-01 3.035947e-15
1.299000e-01 8.677967e-16
1.307500e-01 -1.799662e-15
1.316000e-01 -4.826449e-15
1.324500e-01 -8.005258e-15
1.333000e-01 -1.107132e-14
1.341500e-01 -1.372182e-14
1.350000e-01 -1.564357e-14
1.358500e-01 -1.654638e-14
1.367000e-01 -1.619820e-14
1.375500e-01 -1.445760e-14
1.384000e-01 -1.129878e-14
1.392500e-01 -6.825521e-15
1.401000e-01 -1.271385e-15
1.409500e-01 5.014544e-15
1.418000e-01 1.159505e-14
1.426500e-01 1.798231e-14
1.435000e-01 2.368122e-14
1.443500e-01 2.823304e-14
1.452000e-01 3.125451e-14
1.460500e-01 3.246792e-14
1.469000e-01 3.171924e-14
1.477500e-01 2.898329e-14
1.486000e-01 2.435652e-14
1.494500e-01 1.803995e-14
1.503000e-01 1.031545e-14
1.511500e-01 1.519559e-15
1.520000e-01 -7.981376e-15
1.528500e-01 -1.781133e-14
1.537000e-01 -2.759794e-14
1.545500e-01 -3.697836e-14
1.554000e-01 -4.559815e-14
1.562500e-01 -5.310509e-14
1.571000e-01 -5.914080e-14
1.579500e-01 -6.333313e-14
1.588000e-01 -6.529336e-14
1.596500e-01 -6.462083e-14
1.605000e-01 -6.091835e-14
1.613500e-01 -5.381888e-14
1.622000e-01 -4.302393e-14
1.630500e-01 -2.835130e-14
1.639000e-01 -9.788625e-15
1.647500e-01 1.245283e-14
1.656000e-01 3.789081e-14
1.664500e-01 6.573863e-14
1.673000e-01 9.489263e-14
1.681500e-01 1.239460e-13
1.690000e-01 1.512320e-13
1.698500e-01 1.748959e-13
1.707000e-01 1.929920e-13
1.715500e-01 2.035985e-13
1.724000e-01 2.049414e-13
1.732500e-01 1.955163e-13
1.741000e-01 1.741995e-13
1.749500e-01 1.403413e-13
1.758000e-01 9.383739e-14
1.766500e-01 3.517972e-14
1.775000e-01 -3.451006e-14
1.783500e-01 -1.134588e-13
1.792000e-01 -1.992277e-13
1.800500e-01 -2.887051e-13
1.809000e-01 -3.781097e-13
1.817500e-01 -4.630135e-13
1.826000e-01 -5.384017e-13
1.834500e-01 -5.987884e-13
1.843000e-01 -6.384022e-13
1.851500e-01 -6.514632e-13
1.860000e-01 -6.325432e-13
1.868500e-01 -5.770085e-13
1.877000e-01 -4.815074e-13
1.885500e-01 -3.444709e-13
1.894000e-01 -1.665649e-13
1.902500e-01 4.895541e-14
1.911000e-01 2.960485e-13
1.919500e-01 5.658856e-13
1.928000e-01 8.470702e-13
1.936500e-01 1.126077e-12
1.945000e-01 1.387885e-12
1.953500e-01 1.616753e-12
1.962000e-01 1.797083e-12
1.970500e-01 1.914300e-12
1.979000e-01 1.955674e-12
1.987500e-01 1.911045e-12
1.996000e-01 1.773407e-12
2.004500e-01 1.539338e-12
2.013000e-01 1.209269e-12
2.021500e-01 7.876325e-13
2.030000e-01 2.828969e-13
2.038500e-01 -2.924940e-13
2.047000e-01 -9.222538e-13
2.055500e-01 -1.586472e-12
2.064000e-01 -2.261925e-12
2.072500e-01 -2.922498e-12
2.081000e-01 -3.539751e-12
2.089500e-01 -4.083647e-12
2.098000e-01 -4.523440e-12
2.106500e-01 -4.828740e-12
2.115000e-01 -4.970705e-12
2.123500e-01 -4.923308e-12
2.132000e-01 -4.664617e-12
2.140500e-01 -4.178006e-12
2.149000e-01 -3.453234e-12
2.157500e-01 -2.487329e-12
2.166000e-01 -1.285250e-12
2.174500e-01 1.396952e-13
2.183000e-01 1.765701e-12
2.191500e-01 3.562588e-12
2.200000e-01 5.492197e-12
2.208500e-01 7.509019e-12
2.217000e-01 9.561043e-12
2.225500e-01 1.159076e-11
2.234000e-01 1.353630e-11
2.242500e-01 1.533268e-11
2.251000e-01 1.691312e-11
2.259500e-01 1.821035e-11
2.268000e-01 1.915797e-11
2.276500e-01 1.969153e-11
2.285000e-01 1.974946e-11
2.293500e-01 1.927352e-11
2.302000e-01 1.820873e-11
2.310500e-01 1.650282e-11
2.319000e-01 1.410509e-11
2.327500e-01 1.096485e-11
2.336000e-01 7.029390e-12
2.344500e-01 2.241365e-12
2.353000e-01 -3.464429e-12
2.361500e-01 -1.016490e-11
2.370000e-01 -1.795304e-11
2.378500e-01 -2.694252e-11
2.387000e-01 -3.727257e-11
2.395500e-01 -4.911316e-11
2.404000e-01 -6.267104e-11
2.412500e-01 -7.819644e-11
2.421000e-01 -9.599039e-11
2.429500e-01 -1.164118e-10
2.438000e-01 -1.398836e-10
2.446500e-01 -1.668994e-10
2.455000e-01 -1.980283e-10
2.463500e-01 -2.339220e-10
2.472000e-01 -2.753222e-10
2.480500e-01 -3.230675e-10
2.489000e-01 -3.781002e-10
2.497500e-01 -4.414734e-10
2.506000e-01 -5.143571e-10
2.514500e-01 -5.980464e-10
2.523000e-01 -6.939755e-10
2.531500e-01 -8.037312e-10
2.540000e-01 -9.290703e-10
2.548500e-01 -1.071940e-09
2.557000e-01 -1.234499e-09
2.565500e-01 -1.419137e-09
2.574000e-01 -1.628504e-09
2.582500e-01 -1.865533e-09
2.591000e-01 -2.133467e-09
2.599500e-01 -2.435880e-09
2.608000e-01 -2.776702e-09
2.616500e-01 -3.160235e-09
2.625000e-01 -3.591168e-09
2.633500e-01 -4.074576e-09
2.642000e-01 -4.615919e-09
2.650500e-01 -5.221021e-09
2.659000e-01 -5.896047e-09
2.667500e-01 -6.647450e-09
2.676000e-01 -7.481920e-09
2.684500e-01 -8.406277e-09
2.693000e-01 -9.427367e-09
2.701500e-01 -1.055187e-08
2.710000e-01 -1.178612e-08
2.718500e-01 -1.313584e-08
2.727000e-01 -1.460593e-08
2.735500e-01 -1.620003e-08
2.744000e-01 -1.792022e-08
2.752500e-01 -1.976649e-08
2.761000e-01 -2.173622e-08
2.769500e-01 -2.382359e-08
2.778000e-01 -2.601883e-08
2.786500e-01 -2.830762e-08
2.795000e-01 -3.067024e-08
2.803500e-01 -3.308073e-08
2.812000e-01 -3.550576e-08
2.820500e-01 -3.790357e-08
2.829000e-01 -4.022279e-08
2.837500e-01 -4.240138e-08
2.846000e-01 -4.436527e-08
2.854500e-01 -4.602710e-08
2.863000e-01 -4.728474e-08
2.871500e-01 -4.801992e-08
2.880000e-01 -4.809675e-08
2.888500e-01 -4.736051e-08
2.897000e-01 -4.563612e-08
2.905500e-01 -4.272699e-08
2.914000e-01 -3.841380e-08
2.922500e-01 -3.245350e-08
2.931000e-01 -2.457849e-08
2.939500e-01 -1.449591e-08
2.948000e-01 -1.886932e-09
2.956500e-01 1.359341e-08
2.965000e-01 3.231560e-08
2.973500e-01 5.467487e-08
2.982000e-01 8.108942e-08
2.990500e-01 1.119990e-07
2.999000e-01 1.478627e-07
3.007500e-01 1.891555e-07
3.016000e-01 2.363647e-07
3.024500e-01 2.899846e-07
3.033000e-01 3.505122e-07
3.041500e-01 4.184390e-07
3.050000e-01 4.942449e-07
3.058500e-01 5.783901e-07
3.067000e-01 6.713039e-07
3.075500e-01 7.733757e-07
3.084000e-01 8.849431e-07
3.092500e-01 1.006279e-06
3.101000e-01 1.137580e-06
3.109500e-01 1.278947e-06
3.118000e-01 1.430375e-06
3.126500e-01 1.591735e-06
3.135000e-01 1.762760e-06
3.143500e-01 1.943028e-06
3.152000e-01 2.131941e-06
3.160500e-01 2.328711e-06
3.169000e-01 2.532341e-06
3.177500e-01 2.741611e-06
3.186000e-01 2.955062e-06
3.194500e-01 3.170981e-06
3.203000e-01 3.387387e-06
3.211500e-01 3.602019e-06
3.220000e-01 3.812321e-06
3.228500e-01 4.015444e-06
3.237000e-01 4.208232e-06
3.245500e-01 4.387231e-06
3.254000e-01 4.548687e-06
3.262500e-01 4.688550e-06
3.271000e-01 4.802480e-06
3.279500e-01 4.885869e-06
3.288000e-01 4.933854e-06
3.296500e-01 4.941347e-06
3.305000e-01 4.903062e-06
3.313500e-01 4.813545e-06
3.322000e-01 4.667218e-06
3.330500e-01 4.458424e-06
3.339000e-01 4.181481e-06
3.347500e-01 3.830736e-06
3.356000e-01 3.400628e-06
3.364500e-01 2.885748e-06
3.373000e-01 2.280917e-06
3.381500e-01 1.581258e-06
3.390000e-01 7.822746e-07
3.398500e-01 -1.200627e-07
3.407000e-01 -1.129243e-06
3.415500e-01 -2.248122e-06
3.424000e-01 -3.478842e-06
3.432500e-01 -4.822745e-06
3.441000e-01 -6.280288e-06
3.449500e-01 -7.850974e-06
3.458000e-01 -9.533270e-06
3.466500e-01 -1.132453e-05
3.475000e-01 -1.322095e-05
3.483500e-01 -1.521746e-05
3.492000e-01 -1.730777e-05
3.500500e-01 -1.948424e-05
3.509000e-01 -2.173791e-05
3.517500e-01 -2.405849e-05
3.526000e-01 -2.643431e-05
3.534500e-01 -2.885238e-05
3.543000e-01 -3.129842e-05
3.551500e-01 -3.375689e-05
3.560000e-01 -3.621106e-05
3.568500e-01 -3.864312e-05
3.577000e-01 -4.103420e-05
3.585500e-01 -4.336459e-05
3.594000e-01 -4.561379e-05
3.602500e-01 -4.776066e-05
3.611000e-01 -4.978366e-05
3.619500e-01 -5.166093e-05
3.628000e-01 -5.337059e-05
3.636500e-01 -5.489082e-05
3.645000e-01 -5.620021e-05
3.653500e-01 -5.727787e-05
3.662000e-01 -5.810362e-05
3.670500e-01 -5.865832e-05
3.679000e-01 -5.892414e-05
3.687500e-01 -5.888466e-05
3.696000e-01 -5.852526e-05
3.704500e-01 -5.783314e-05
3.713000e-01 -5.679764e-05
3.721500e-01 -5.541040e-05
3.730000e-01 -5.366554e-05
3.738500e-01 -5.155983e-05
3.747000e-01 -4.909287e-05
3.755500e-01 -4.626719e-05
3.764000e-01 -4.308829e-05
3.772500e-01 -3.956471e-05
3.781000e-01 -3.570806e-05
3.789500e-01 -3.153298e-05
3.798000e-01 -2.705715e-05
3.806500e-01 -2.230128e-05
3.815000e-01 -1.728891e-05
3.823500e-01 -1.204639e-05
3.832000e-01 -6.602650e-06
3.840500e-01 -9.889347e-07
3.849000e-01 4.761418e-06
3.857500e-01 1.061325e-05
3.866000e-01 1.652981e-05
3.874500e-01 2.247301e-05
3.883000e-01 2.840375e-05
3.891500e-01 3.428226e-05
