-1.200000e-01 0.000000e+00
-1.191500e-01 0.000000e+00
-1.183000e-01 0.000000e+00
-1.174500e-01 0.000000e+00
-1.166000e-01 -4.211804e-19
-1.157500e-01 -3.268730e-18
-1.149000e-01 -1.345266e-17
-1.140500e-01 -3.830729e-17
-1.132000e-01 -8.247064e-17
-1.123500e-01 -1.361594e-16
-1.115000e-01 -1.583797e-16
-1.106500e-01 -6.246775e-17
-1.098000e-01 2.824460e-16
-1.089500e-01 1.017502e-15
-1.081000e-01 2.215708e-15
-1.072500e-01 3.762074e-15
-1.064000e-01 5.220293e-15
-1.055500e-01 5.743124e-15
-1.047000e-01 4.105651e-15
-1.038500e-01 -1.059213e-15
-1.030000e-01 -1.077861e-14
-1.021500e-01 -2.504238e-14
-1.013000e-01 -4.203018e-14
-1.004500e-01 -5.751726e-14
-9.960000e-02 -6.479441e-14
-9.875000e-02 -5.543534e-14
-9.790000e-02 -2.112253e-14
-9.705000e-02 4.351521e-14
-9.620000e-02 1.374647e-13
-9.535000e-02 2.500961e-13
-9.450001e-02 3.592524e-13
-9.365001e-02 4.318654e-13
-9.280001e-02 4.280575e-13
-9.195001e-02 3.090615e-13
-9.110001e-02 4.831625e-14
-9.025000e-02 -3.560387e-13
-8.940001e-02 -8.701034e-13
-8.855000e-02 -1.418049e-12
-8.770001e-02 -1.884215e-12
-8.685000e-02 -2.125831e-12
-8.600000e-02 -1.996803e-12
-8.515000e-02 -1.380416e-12
-8.430000e-02 -2.259694e-13
-8.345000e-02 1.417951e-12
-8.260000e-02 3.382129e-12
-8.175001e-02 5.375382e-12
-8.090001e-02 7.008926e-12
-8.005001e-02 7.847807e-12
-7.920000e-02 7.485405e-12
-7.835001e-02 5.631025e-12
-7.750000e-02 2.195983e-12
-7.665001e-02 -2.639321e-12
-7.580000e-02 -8.394350e-12
-7.495001e-02 -1.430665e-11
-7.410000e-02 -1.940543e-11
-7.325000e-02 -2.263733e-11
-7.240000e-02 -2.303081e-11
-7.155000e-02 -1.987675e-11
-7.070000e-02 -1.289630e-11
-6.985001e-02 -2.365555e-12
-6.900001e-02 1.083062e-11
-6.815000e-02 2.523434e-11
-6.730001e-02 3.894667e-11
-6.645000e-02 4.984731e-11
-6.560001e-02 5.587864e-11
-6.475000e-02 5.535815e-11
-6.390001e-02 4.727485e-11
-6.305000e-02 3.152374e-11
-6.220000e-02 9.036829e-12
-6.135000e-02 -1.821872e-11
-6.050000e-02 -4.738860e-11
-5.965000e-02 -7.501772e-11
-5.880000e-02 -9.744713e-11
-5.795000e-02 -1.112755e-10
-5.710001e-02 -1.138258e-10
-5.625001e-02 -1.035528e-10
-5.540001e-02 -8.033146e-11
-5.455001e-02 -4.557842e-11
-5.370001e-02 -2.179303e-12
-5.285000e-02 4.577794e-11
-5.200000e-02 9.343688e-11
-5.115000e-02 1.357206e-10
-5.030000e-02 1.679229e-10
-4.945000e-02 1.862621e-10
-4.860000e-02 1.883219e-10
-4.775000e-02 1.733175e-10
-4.690000e-02 1.421551e-10
-4.605000e-02 9.727832e-11
-4.520001e-02 4.233638e-11
-4.435001e-02 -1.827071e-11
-4.350001e-02 -7.989256e-11
-4.265001e-02 -1.380957e-10
-4.180001e-02 -1.890284e-10
-4.095000e-02 -2.296384e-10
-4.010000e-02 -2.577311e-10
-3.925000e-02 -2.718880e-10
-3.840000e-02 -2.712951e-10
-3.755000e-02 -2.555495e-10
-3.670000e-02 -2.245114e-10
-3.585000e-02 -1.782610e-10
-3.500000e-02 -1.171864e-10
-3.415000e-02 -4.219841e-11
-3.330000e-02 4.496893e-11
-3.245001e-02 1.414434e-10
-3.160001e-02 2.429701e-10
-3.075001e-02 3.438231e-10
-2.990001e-02 4.369374e-10
-2.905000e-02 5.142929e-10
-2.820000e-02 5.675420e-10
-2.735000e-02 5.888243e-10
-2.650000e-02 5.716799e-10
-2.565000e-02 5.119452e-10
-2.480000e-02 4.085129e-10
-2.395000e-02 2.638449e-10
-2.310000e-02 8.415529e-11
-2.225000e-02 -1.207775e-10
-2.140000e-02 -3.381723e-10
-2.055001e-02 -5.531334e-10
-1.970001e-02 -7.497850e-10
-1.885001e-02 -9.125432e-10
-1.800001e-02 -1.027400e-09
-1.715000e-02 -1.083097e-09
-1.630000e-02 -1.072072e-09
-1.545000e-02 -9.910915e-10
-1.460000e-02 -8.415113e-10
-1.375000e-02 -6.291445e-10
-1.290000e-02 -3.637576e-10
-1.205000e-02 -5.826001e-11
-1.120000e-02 2.723257e-10
-1.035000e-02 6.119910e-10
-9.500004e-03 9.448411e-10
-8.650005e-03 1.256053e-09
-7.800005e-03 1.532597e-09
-6.950006e-03 1.763673e-09
-6.100006e-03 1.940848e-09
-5.250007e-03 2.057957e-09
-4.400000e-03 2.110842e-09
-3.550000e-03 2.097059e-09
-2.700001e-03 2.015656e-09
-1.850002e-03 1.867156e-09
-1.000002e-03 1.653770e-09
-1.500025e-04 1.379867e-09
6.999969e-04 1.052632e-09
1.549996e-03 6.827913e-10
2.399996e-03 2.852440e-10
3.249995e-03 -1.205631e-10
4.099995e-03 -5.106646e-10
4.949994e-03 -8.570951e-10
5.799994e-03 -1.128920e-09
6.650001e-03 -1.293694e-09
7.499993e-03 -1.319199e-09
8.350000e-03 -1.175193e-09
9.199992e-03 -8.349769e-10
1.005000e-02 -2.764526e-10
1.089999e-02 5.175122e-10
1.175000e-02 1.559475e-09
1.259999e-02 2.858684e-09
1.345000e-02 4.423077e-09
1.430000e-02 6.261757e-09
1.515000e-02 8.387885e-09
1.600000e-02 1.082130e-08
1.684999e-02 1.359116e-08
1.770000e-02 1.673774e-08
1.854999e-02 2.031395e-08
1.940000e-02 2.438610e-08
2.024999e-02 2.903419e-08
2.110000e-02 3.435235e-08
2.194999e-02 4.044937e-08
2.280000e-02 4.744968e-08
2.364999e-02 5.549551e-08
2.450000e-02 6.475025e-08
2.535000e-02 7.540260e-08
2.620000e-02 8.767264e-08
2.705000e-02 1.018184e-07
2.790000e-02 1.181433e-07
2.875000e-02 1.370046e-07
2.959999e-02 1.588200e-07
3.045000e-02 1.840765e-07
3.129999e-02 2.133379e-07
3.215000e-02 2.472509e-07
3.299999e-02 2.865541e-07
3.385000e-02 3.320849e-07
3.469999e-02 3.847892e-07
3.555000e-02 4.457330e-07
3.639999e-02 5.161165e-07
3.725000e-02 5.972881e-07
3.810000e-02 6.907625e-07
3.895000e-02 7.982454e-07
3.980000e-02 9.216501e-07
4.065000e-02 1.063126e-06
4.150000e-02 1.225080e-06
4.234999e-02 1.410205e-06
4.320000e-02 1.621496e-06
4.404999e-02 1.862289e-06
4.490000e-02 2.136274e-06
4.574999e-02 2.447532e-06
4.660000e-02 2.800548e-06
4.744999e-02 3.200249e-06
4.830000e-02 3.652037e-06
4.914999e-02 4.161795e-06
5.000000e-02 4.735943e-06
5.085000e-02 5.381446e-06
5.170000e-02 6.105848e-06
5.255000e-02 6.917295e-06
5.339999e-02 7.824565e-06
5.425000e-02 8.837023e-06
5.509999e-02 9.964715e-06
5.595000e-02 1.121830e-05
5.679999e-02 1.260906e-05
5.765000e-02 1.414889e-05
5.849999e-02 1.585026e-05
5.935000e-02 1.772621e-05
6.019999e-02 1.979025e-05
6.105000e-02 2.205634e-05
6.190000e-02 2.453878e-05
6.275000e-02 2.725219e-05
6.360000e-02 3.021132e-05
6.445000e-02 3.343099e-05
6.530000e-02 3.692590e-05
6.614999e-02 4.071049e-05
6.700000e-02 4.479878e-05
6.784999e-02 4.920409e-05
6.870000e-02 5.393893e-05
6.954999e-02 5.901458e-05
7.040000e-02 6.444099e-05
7.124999e-02 7.022636e-05
7.210000e-02 7.637698e-05
7.294999e-02 8.289675e-05
7.380000e-02 8.978687e-05
7.465000e-02 9.704565e-05
7.550000e-02 1.046679e-04
7.635000e-02 1.126447e-04
7.720000e-02 1.209631e-04
7.805000e-02 1.296058e-04
7.889999e-02 1.385503e-04
7.975000e-02 1.477693e-04
8.059999e-02 1.572301e-04
8.145000e-02 1.668939e-04
8.229999e-02 1.767161e-04
8.315000e-02 1.866460e-04
8.399999e-02 1.966264e-04
8.485000e-02 2.065938e-04
8.570001e-02 2.164781e-04
8.655000e-02 2.262028e-04
8.740000e-02 2.356851e-04
8.825000e-02 2.448362e-04
8.910000e-02 2.535613e-04
8.995000e-02 2.617603e-04
9.080000e-02 2.693279e-04
9.164999e-02 2.761547e-04
9.250000e-02 2.821276e-04
9.334999e-02 2.871305e-04
9.420000e-02 2.910453e-04
9.504999e-02 2.937531e-04
9.590000e-02 2.951349e-04
9.674999e-02 2.950731e-04
9.760000e-02 2.934527e-04
9.845001e-02 2.901627e-04
9.930000e-02 2.850973e-04
1.001500e-01 2.781575e-04
1.010000e-01 2.692521e-04
1.018500e-01 2.583001e-04
1.027000e-01 2.452316e-04
1.035500e-01 2.299892e-04
1.044000e-01 2.125295e-04
1.052500e-01 1.928246e-04
1.061000e-01 1.708632e-04
1.069500e-01 1.466517e-04
1.078000e-01 1.202153e-04
1.086500e-01 9.159889e-05
1.095000e-01 6.086799e-05
1.103500e-01 2.810911e-05
1.112000e-01 -6.570567e-06
1.120500e-01 -4.304187e-05
1.129000e-01 -8.115475e-05
1.137500e-01 -1.207384e-04
1.146000e-01 -1.616020e-04
1.154500e-01 -2.035346e-04
1.163000e-01 -2.463081e-04
1.171500e-01 -2.896771e-04
1.180000e-01 -3.333809e-04
1.188500e-01 -3.771457e-04
1.197000e-01 -4.206863e-04
1.205500e-01 -4.637088e-04
1.214000e-01 -5.059122e-04
1.222500e-01 -5.469918e-04
1.231000e-01 -5.866415e-04
1.239500e-01 -6.245573e-04
1.248000e-01 -6.604391e-04
1.256500e-01 -6.939947e-04
1.265000e-01 -7.249421e-04
1.273500e-01 -7.530130e-04
1.282000e-01 -7.779552e-04
1.290500e-01 -7.995348e-04
1.299000e-01 -8.175403e-04
1.307500e-01 -8.317837e-04
1.316000e-01 -8.421030e-04
1.324500e-01 -8.483640e-04
1.333000e-01 -8.504633e-04
1.341500e-01 -8.483275e-04
1.350000e-01 -8.419161e-04
1.358500e-01 -8.312213e-04
1.367000e-01 -8.162687e-04
1.375500e-01 -7.971178e-04
1.384000e-01 -7.738611e-04
1.392500e-01 -7.466237e-04
1.401000e-01 -7.155621e-04
1.409500e-01 -6.808632e-04
1.418000e-01 -6.427430e-04
1.426500e-01 -6.014435e-04
1.435000e-01 -5.572318e-04
1.443500e-01 -5.103961e-04
1.452000e-01 -4.612451e-04
1.460500e-01 -4.101031e-04
1.469000e-01 -3.573076e-04
1.477500e-01 -3.032073e-04
1.486000e-01 -2.481566e-04
1.494500e-01 -1.925145e-04
1.503000e-01 -1.366402e-04
1.511500e-01 -8.088940e-05
1.520000e-01 -2.561286e-05
1.528500e-01 2.884859e-05
1.537000e-01 8.216580e-05
1.545500e-01 1.340246e-04
1.554000e-01 1.841283e-04
1.562500e-01 2.321996e-04
1.571000e-01 2.779823e-04
1.579500e-01 3.212455e-04
1.588000e-01 3.617823e-04
1.596500e-01 3.994116e-04
1.605000e-01 4.339810e-04
1.613500e-01 4.653646e-04
1.622000e-01 4.934650e-04
1.630500e-01 5.182137e-04
1.639000e-01 5.395692e-04
1.647500e-01 5.575173e-04
1.656000e-01 5.720709e-04
1.664500e-01 5.832680e-04
1.673000e-01 5.911708e-04
1.681500e-01 5.958644e-04
1.690000e-01 5.974542e-04
1.698500e-01 5.960663e-04
1.707000e-01 5.918426e-04
1.715500e-01 5.849411e-04
1.724000e-01 5.755330e-04
1.732500e-01 5.638004e-04
1.741000e-01 5.499339e-04
1.749500e-01 5.341312e-04
1.758000e-01 5.165953e-04
1.766500e-01 4.975305e-04
1.775000e-01 4.771427e-04
1.783500e-01 4.556362e-04
1.792000e-01 4.332122e-04
1.800500e-01 4.100672e-04
1.809000e-01 3.863917e-04
1.817500e-01 3.623685e-04
1.826000e-01 3.381720e-04
1.834500e-01 3.139664e-04
1.843000e-01 2.899056e-04
1.851500e-01 2.661321e-04
1.860000e-01 2.427767e-04
1.868500e-01 2.199575e-04
1.877000e-01 1.977804e-04
1.885500e-01 1.763387e-04
1.894000e-01 1.557132e-04
1.902500e-01 1.359719e-04
1.911000e-01 1.171711e-04
1.919500e-01 9.935516e-05
1.928000e-01 8.255732e-05
1.936500e-01 6.679997e-05
1.945000e-01 5.209560e-05
1.953500e-01 3.844719e-05
1.962000e-01 2.584930e-05
1.970500e-01 1.428832e-05
1.979000e-01 3.744001e-06
1.987500e-01 -5.810621e-06
1.996000e-01 -1.440769e-05
2.004500e-01 -2.208425e-05
2.013000e-01 -2.888113e-05
2.021500e-01 -3.484246e-05
2.030000e-01 -4.001485e-05
2.038500e-01 -4.444677e-05
2.047000e-01 -4.818792e-05
2.055500e-01 -5.128857e-05
2.064000e-01 -5.379920e-05
2.072500e-01 -5.576983e-05
2.081000e-01 -5.724972e-05
2.089500e-01 -5.828692e-05
2.098000e-01 -5.892797e-05
2.106500e-01 -5.921750e-05
2.115000e-01 -5.919804e-05
2.123500e-01 -5.891005e-05
2.132000e-01 -5.839140e-05
2.140500e-01 -5.767756e-05
2.149000e-01 -5.680128e-05
2.157500e-01 -5.579290e-05
2.166000e-01 -5.468006e-05
2.174500e-01 -5.348787e-05
2.183000e-01 -5.223896e-05
2.191500e-01 -5.095341e-05
2.200000e-01 -4.964918e-05
2.208500e-01 -4.834164e-05
2.217000e-01 -4.704421e-05
2.225500e-01 -4.576824e-05
2.234000e-01 -4.452307e-05
2.242500e-01 -4.331626e-05
2.251000e-01 -4.215376e-05
2.259500e-01 -4.103994e-05
2.268000e-01 -3.997772e-05
2.276500e-01 -3.896900e-05
2.285000e-01 -3.801444e-05
2.293500e-01 -3.711380e-05
2.302000e-01 -3.626603e-05
2.310500e-01 -3.546939e-05
2.319000e-01 -3.472147e-05
2.327500e-01 -3.401951e-05
2.336000e-01 -3.336027e-05
2.344500e-01 -3.274020e-05
2.353000e-01 -3.215560e-05
2.361500e-01 -3.160255e-05
2.370000e-01 -3.107705e-05
2.378500e-01 -3.057513e-05
2.387000e-01 -3.009284e-05
2.395500e-01 -2.962628e-05
2.404000e-01 -2.917178e-05
2.412500e-01 -2.872585e-05
2.421000e-01 -2.828514e-05
2.429500e-01 -2.784665e-05
2.438000e-01 -2.740758e-05
2.446500e-01 -2.696550e-05
2.455000e-01 -2.651818e-05
2.463500e-01 -2.606370e-05
2.472000e-01 -2.560046e-05
2.480500e-01 -2.512707e-05
2.489000e-01 -2.464247e-05
2.497500e-01 -2.414580e-05
2.506000e-01 -2.363648e-05
2.514500e-01 -2.311411e-05
2.523000e-01 -2.257853e-05
2.531500e-01 -2.202978e-05
2.540000e-01 -2.146808e-05
2.548500e-01 -2.089377e-05
2.557000e-01 -2.030742e-05
2.565500e-01 -1.970968e-05
2.574000e-01 -1.910134e-05
2.582500e-01 -1.848329e-05
2.591000e-01 -1.785654e-05
2.599500e-01 -1.722211e-05
2.608000e-01 -1.658114e-05
2.616500e-01 -1.593479e-05
2.625000e-01 -1.528424e-05
2.633500e-01 -1.463069e-05
2.642000e-01 -1.397539e-05
2.650500e-01 -1.331955e-05
2.659000e-01 -1.266439e-05
2.667500e-01 -1.201114e-05
2.676000e-01 -1.136098e-05
2.684500e-01 -1.071509e-05
2.693000e-01 -1.007464e-05
2.701500e-01 -9.440745e-06
2.710000e-01 -8.814488e-06
2.718500e-01 -8.196929e-06
2.727000e-01 -7.589102e-06
2.735500e-01 -6.991996e-06
2.744000e-01 -6.406548e-06
2.752500e-01 -5.833652e-06
2.761000e-01 -5.274161e-06
2.769500e-01 -4.728842e-06
2.778000e-01 -4.198397e-06
2.786500e-01 -3.683449e-06
2.795000e-01 -3.184534e-06
2.803500e-01 -2.702109e-06
2.812000e-01 -2.236535e-06
2.820500e-01 -1.788098e-06
2.829000e-01 -1.357015e-06
2.837500e-01 -9.434323e-07
2.846000e-01 -5.474275e-07
2.854500e-01 -1.690379e-07
2.863000e-01 1.917581e-07
2.871500e-01 5.350360e-07
2.880000e-01 8.609206e-07
2.888500e-01 1.169588e-06
2.897000e-01 1.461272e-06
2.905500e-01 1.736262e-06
2.914000e-01 1.994894e-06
2.922500e-01 2.237540e-06
2.931000e-01 2.464596e-06
2.939500e-01 2.676473e-06
2.948000e-01 2.873568e-06
2.956500e-01 3.056258e-06
2.965000e-01 3.224885e-06
2.973500e-01 3.379736e-06
2.982000e-01 3.521054e-06
2.990500e-01 3.649033e-06
2.999000e-01 3.763821e-06
3.007500e-01 3.865526e-06
3.016000e-01 3.954234e-06
3.024500e-01 4.030017e-06
3.033000e-01 4.092933e-06
3.041500e-01 4.143046e-06
3.050000e-01 4.180425e-06
3.058500e-01 4.205153e-06
3.067000e-01 4.217327e-06
3.075500e-01 4.217062e-06
3.084000e-01 4.204489e-06
3.092500e-01 4.179757e-06
3.101000e-01 4.143048e-06
3.109500e-01 4.094558e-06
3.118000e-01 4.034528e-06
3.126500e-01 3.963231e-06
3.135000e-01 3.880982e-06
3.143500e-01 3.788142e-06
3.152000e-01 3.685121e-06
3.160500e-01 3.572381e-06
3.169000e-01 3.450426e-06
3.177500e-01 3.319803e-06
3.186000e-01 3.181090e-06
3.194500e-01 3.034885e-06
3.203000e-01 2.881796e-06
3.211500e-01 2.722426e-06
3.220000e-01 2.557357e-06
3.228500e-01 2.387145e-06
3.237000e-01 2.212310e-06
3.245500e-01 2.033328e-06
3.254000e-01 1.850638e-06
3.262500e-01 1.664639e-06
3.271000e-01 1.475695e-06
3.279500e-01 1.284140e-06
3.288000e-01 1.090286e-06
3.296500e-01 8.944222e-07
3.305000e-01 6.968257e-07
3.313500e-01 4.977568e-07
3.322000e-01 2.974609e-07
3.330500e-01 9.617295e-08
3.339000e-01 -1.058952e-07
3.347500e-01 -3.085336e-07
3.356000e-01 -5.115443e-07
3.364500e-01 -7.147322e-07
3.373000e-01 -9.178954e-07
3.381500e-01 -1.120818e-06
3.390000e-01 -1.323260e-06
3.398500e-01 -1.524951e-06
3.407000e-01 -1.725583e-06
3.415500e-01 -1.924807e-06
3.424000e-01 -2.122230e-06
3.432500e-01 -2.317428e-06
3.441000e-01 -2.509935e-06
3.449500e-01 -2.699266e-06
3.458000e-01 -2.884925e-06
3.466500e-01 -3.066406e-06
3.475000e-01 -3.243225e-06
3.483500e-01 -3.414915e-06
3.492000e-01 -3.581041e-06
3.500500e-01 -3.741217e-06
3.509000e-01 -3.895093e-06
3.517500e-01 -4.042379e-06
3.526000e-01 -4.182836e-06
3.534500e-01 -4.316269e-06
3.543000e-01 -4.442539e-06
3.551500e-01 -4.561547e-06
3.560000e-01 -4.673232e-06
3.568500e-01 -4.777572e-06
3.577000e-01 -4.874578e-06
3.585500e-01 -4.964292e-06
3.594000e-01 -5.046778e-06
3.602500e-01 -5.122127e-06
3.611000e-01 -5.190437e-06
3.619500e-01 -5.251824e-06
3.628000e-01 -5.306384e-06
3.636500e-01 -5.354208e-06
3.645000e-01 -5.395341e-06
3.653500e-01 -5.429783e-06
3.662000e-01 -5.457479e-06
3.670500e-01 -5.478293e-06
3.679000e-01 -5.492012e-06
3.687500e-01 -5.498345e-06
3.696000e-01 -5.496926e-06
3.704500e-01 -5.487310e-06
3.713000e-01 -5.469004e-06
3.721500e-01 -5.441459e-06
3.730000e-01 -5.404093e-06
3.738500e-01 -5.356299e-06
3.747000e-01 -5.297466e-06
3.755500e-01 -5.226974e-06
3.764000e-01 -5.144226e-06
3.772500e-01 -5.048655e-06
3.781000e-01 -4.939737e-06
3.789500e-01 -4.817015e-06
3.798000e-01 -4.680114e-06
3.806500e-01 -4.528766e-06
3.815000e-01 -4.362826e-06
3.823500e-01 -4.182286e-06
3.832000e-01 -3.987297e-06
3.840500e-01 -3.778172e-06
3.849000e-01 -3.555390e-06
3.857500e-01 -3.319597e-06
3.866000e-01 -3.071609e-06
3.874500e-01 -2.812390e-06
3.883000e-01 -2.543055e-06
3.891500e-01 -2.264856e-06
