-1.200000e-01 0.000000e+00
-1.191500e-01 0.000000e+00
-1.183000e-01 0.000000e+00
-1.174500e-01 -1.004834e-18
-1.166000e-01 -5.644677e-18
-1.157500e-01 -1.654969e-17
-1.149000e-01 -3.189763e-17
-1.140500e-01 -4.001987e-17
-1.132000e-01 -1.700198e-17
-1.123500e-01 6.890246e-17
-1.115000e-01 2.452705e-16
-1.106500e-01 5.201309e-16
-1.098000e-01 8.717530e-16
-1.089500e-01 1.252767e-15
-1.081000e-01 1.612894e-15
-1.072500e-01 1.935037e-15
-1.064000e-01 2.269289e-15
-1.055500e-01 2.744162e-15
-1.047000e-01 3.538990e-15
-1.038500e-01 4.816958e-15
-1.030000e-01 6.640220e-15
-1.021500e-01 8.907279e-15
-1.013000e-01 1.135699e-14
-1.004500e-01 1.366518e-14
-9.960000e-02 1.561955e-14
-9.875000e-02 1.730883e-14
-9.790000e-02 1.922401e-14
-9.705000e-02 2.216773e-14
-9.620000e-02 2.691860e-14
-9.535000e-02 3.369732e-14
-9.450001e-02 4.160551e-14
-9.365001e-02 4.830798e-14
-9.280001e-02 5.024893e-14
-9.195001e-02 4.359116e-14
-9.110001e-02 2.583789e-14
-9.025000e-02 -2.217436e-15
-8.940001e-02 -3.486887e-14
-8.855000e-02 -6.102285e-14
-8.770001e-02 -6.559668e-14
-8.685000e-02 -3.310818e-14
-8.600000e-02 4.692102e-14
-8.515000e-02 1.739452e-13
-8.430000e-02 3.316604e-13
-8.345000e-02 4.867441e-13
-8.260000e-02 5.929006e-13
-8.175001e-02 6.009206e-13
-8.090001e-02 4.737343e-13
-8.005001e-02 2.034425e-13
-7.920000e-02 -1.743795e-13
-7.835001e-02 -5.745441e-13
-7.750000e-02 -8.690470e-13
-7.665001e-02 -9.091949e-13
-7.580000e-02 -5.617269e-13
-7.495001e-02 2.468723e-13
-7.410000e-02 1.487687e-12
-7.325000e-02 3.000521e-12
-7.240000e-02 4.490742e-12
-7.155000e-02 5.559980e-12
-7.070000e-02 5.772229e-12
-6.985001e-02 4.748204e-12
-6.900001e-02 2.272177e-12
-6.815000e-02 -1.611193e-12
-6.730001e-02 -6.534667e-12
-6.645000e-02 -1.180256e-11
-6.560001e-02 -1.645370e-11
-6.475000e-02 -1.939277e-11
-6.390001e-02 -1.957382e-11
-6.305000e-02 -1.620665e-11
-6.220000e-02 -8.947169e-12
-6.135000e-02 1.967761e-12
-6.050000e-02 1.567390e-11
-5.965000e-02 3.073907e-11
-5.880000e-02 4.532597e-11
-5.795000e-02 5.743504e-11
-5.710001e-02 6.518732e-11
-5.625001e-02 6.709749e-11
-5.540001e-02 6.228903e-11
-5.455001e-02 5.061453e-11
-5.370001e-02 3.266254e-11
-5.285000e-02 9.656918e-12
-5.200000e-02 -1.672722e-11
-5.115000e-02 -4.458858e-11
-5.030000e-02 -7.202246e-11
-4.945000e-02 -9.730049e-11
-4.860000e-02 -1.189812e-10
-4.775000e-02 -1.359463e-10
-4.690000e-02 -1.473725e-10
-4.605000e-02 -1.526635e-10
-4.520001e-02 -1.513746e-10
-4.435001e-02 -1.431543e-10
-4.350001e-02 -1.277213e-10
-4.265001e-02 -1.048833e-10
-4.180001e-02 -7.459115e-11
-4.095000e-02 -3.701739e-11
-4.010000e-02 7.347887e-12
-3.925000e-02 5.758716e-11
-3.840000e-02 1.122269e-10
-3.755000e-02 1.690787e-10
-3.670000e-02 2.250442e-10
-3.585000e-02 2.758887e-10
-3.500000e-02 3.160225e-10
-3.415000e-02 3.383359e-10
-3.330000e-02 3.341754e-10
-3.245001e-02 2.935429e-10
-3.160001e-02 2.055913e-10
-3.075001e-02 5.944681e-11
-2.990001e-02 -1.546833e-10
-2.905000e-02 -4.441810e-10
-2.820000e-02 -8.126689e-10
-2.735000e-02 -1.258835e-09
-2.650000e-02 -1.775640e-09
-2.565000e-02 -2.350050e-09
-2.480000e-02 -2.963434e-09
-2.395000e-02 -3.592518e-09
-2.310000e-02 -4.210802e-09
-2.225000e-02 -4.790065e-09
-2.140000e-02 -5.301749e-09
-2.055001e-02 -5.717789e-09
-1.970001e-02 -6.010617e-09
-1.885001e-02 -6.152233e-09
-1.800001e-02 -6.112543e-09
-1.715000e-02 -5.856684e-09
-1.630000e-02 -5.342290e-09
-1.545000e-02 -4.516819e-09
-1.460000e-02 -3.315124e-09
-1.375000e-02 -1.657953e-09
-1.290000e-02 5.485487e-10
-1.205000e-02 3.413064e-09
-1.120000e-02 7.058337e-09
-1.035000e-02 1.162102e-08
-9.500004e-03 1.725232e-08
-8.650005e-03 2.411979e-08
-7.800005e-03 3.241092e-08
-6.950006e-03 4.233974e-08
-6.100006e-03 5.415374e-08
-5.250007e-03 6.814589e-08
-4.400000e-03 8.466493e-08
-3.550000e-03 1.041293e-07
-2.700001e-03 1.270399e-07
-1.850002e-03 1.539954e-07
-1.000002e-03 1.857040e-07
-1.500025e-04 2.229985e-07
6.999969e-04 2.668502e-07
1.549996e-03 3.183834e-07
2.399996e-03 3.788867e-07
3.249995e-03 4.498373e-07
4.099995e-03 5.329156e-07
4.949994e-03 6.300305e-07
5.799994e-03 7.433382e-07
6.650001e-03 8.752808e-07
7.499993e-03 1.028606e-06
8.350000e-03 1.206410e-06
9.199992e-03 1.412170e-06
1.005000e-02 1.649783e-06
1.089999e-02 1.923607e-06
1.175000e-02 2.238493e-06
1.259999e-02 2.599850e-06
1.345000e-02 3.013655e-06
1.430000e-02 3.486528e-06
1.515000e-02 4.025751e-06
1.600000e-02 4.639313e-06
1.684999e-02 5.336002e-06
1.770000e-02 6.125360e-06
1.854999e-02 7.017818e-06
1.940000e-02 8.024700e-06
2.024999e-02 9.158248e-06
2.110000e-02 1.043170e-05
2.194999e-02 1.185930e-05
2.280000e-02 1.345636e-05
2.364999e-02 1.523923e-05
2.450000e-02 1.722535e-05
2.535000e-02 1.943326e-05
2.620000e-02 2.188254e-05
2.705000e-02 2.459374e-05
2.790000e-02 2.758844e-05
2.875000e-02 3.088916e-05
2.959999e-02 3.451913e-05
3.045000e-02 3.850231e-05
3.129999e-02 4.286326e-05
3.215000e-02 4.762688e-05
3.299999e-02 5.281822e-05
3.385000e-02 5.846250e-05
3.469999e-02 6.458448e-05
3.555000e-02 7.120863e-05
3.639999e-02 7.835837e-05
3.725000e-02 8.605604e-05
3.810000e-02 9.432250e-05
3.895000e-02 1.031766e-04
3.980000e-02 1.126347e-04
4.065000e-02 1.227104e-04
4.150000e-02 1.334140e-04
4.234999e-02 1.447517e-04
4.320000e-02 1.567254e-04
4.404999e-02 1.693318e-04
4.490000e-02 1.825623e-04
4.574999e-02 1.964018e-04
4.660000e-02 2.108286e-04
4.744999e-02 2.258137e-04
4.830000e-02 2.413200e-04
4.914999e-02 2.573026e-04
5.000000e-02 2.737069e-04
5.085000e-02 2.904698e-04
5.170000e-02 3.075180e-04
5.255000e-02 3.247680e-04
5.339999e-02 3.421263e-04
5.425000e-02 3.594893e-04
5.509999e-02 3.767419e-04
5.595000e-02 3.937593e-04
5.679999e-02 4.104065e-04
5.765000e-02 4.265368e-04
5.849999e-02 4.419964e-04
5.935000e-02 4.566203e-04
6.019999e-02 4.702366e-04
6.105000e-02 4.826653e-04
6.190000e-02 4.937203e-04
6.275000e-02 5.032109e-04
6.360000e-02 5.109413e-04
6.445000e-02 5.167145e-04
6.530000e-02 5.203337e-04
6.614999e-02 5.216017e-04
6.700000e-02 5.203258e-04
6.784999e-02 5.163183e-04
6.870000e-02 5.093988e-04
6.954999e-02 4.993970e-04
7.040000e-02 4.861546e-04
7.124999e-02 4.695289e-04
7.210000e-02 4.493920e-04
7.294999e-02 4.256379e-04
7.380000e-02 3.981793e-04
7.465000e-02 3.669557e-04
7.550000e-02 3.319306e-04
7.635000e-02 2.930963e-04
7.720000e-02 2.504750e-04
7.805000e-02 2.041194e-04
7.889999e-02 1.541170e-04
7.975000e-02 1.005864e-04
8.059999e-02 4.368298e-05
8.145000e-02 -1.640401e-05
8.229999e-02 -7.944938e-05
8.315000e-02 -1.451946e-04
8.399999e-02 -2.133461e-04
8.485000e-02 -2.835767e-04
8.570001e-02 -3.555292e-04
8.655000e-02 -4.288148e-04
8.740000e-02 -5.030193e-04
8.825000e-02 -5.777027e-04
8.910000e-02 -6.524032e-04
8.995000e-02 -7.266421e-04
9.080000e-02 -7.999245e-04
9.164999e-02 -8.717456e-04
9.250000e-02 -9.415948e-04
9.334999e-02 -1.008960e-03
9.420000e-02 -1.073334e-03
9.504999e-02 -1.134213e-03
9.590000e-02 -1.191110e-03
9.674999e-02 -1.243554e-03
9.760000e-02 -1.291096e-03
9.845001e-02 -1.333316e-03
9.930000e-02 -1.369824e-03
1.001500e-01 -1.400267e-03
1.010000e-01 -1.424331e-03
1.018500e-01 -1.441747e-03
1.027000e-01 -1.452290e-03
1.035500e-01 -1.455789e-03
1.044000e-01 -1.452122e-03
1.052500e-01 -1.441224e-03
1.061000e-01 -1.423082e-03
1.069500e-01 -1.397742e-03
1.078000e-01 -1.365304e-03
1.086500e-01 -1.325924e-03
1.095000e-01 -1.279816e-03
1.103500e-01 -1.227245e-03
1.112000e-01 -1.168526e-03
1.120500e-01 -1.104022e-03
1.129000e-01 -1.034145e-03
1.137500e-01 -9.593447e-04
1.146000e-01 -8.801091e-04
1.154500e-01 -7.969590e-04
1.163000e-01 -7.104439e-04
1.171500e-01 -6.211334e-04
1.180000e-01 -5.296174e-04
1.188500e-01 -4.364975e-04
1.197000e-01 -3.423799e-04
1.205500e-01 -2.478729e-04
1.214000e-01 -1.535802e-04
1.222500e-01 -6.009554e-05
1.231000e-01 3.200333e-05
1.239500e-01 1.221591e-04
1.248000e-01 2.098381e-04
1.256500e-01 2.945373e-04
1.265000e-01 3.757871e-04
1.273500e-01 4.531543e-04
1.282000e-01 5.262451e-04
1.290500e-01 5.947107e-04
1.299000e-01 6.582436e-04
1.307500e-01 7.165858e-04
1.316000e-01 7.695245e-04
1.324500e-01 8.168964e-04
1.333000e-01 8.585856e-04
1.341500e-01 8.945228e-04
1.350000e-01 9.246857e-04
1.358500e-01 9.490977e-04
1.367000e-01 9.678255e-04
1.375500e-01 9.809766e-04
1.384000e-01 9.886987e-04
1.392500e-01 9.911726e-04
1.401000e-01 9.886159e-04
1.409500e-01 9.812721e-04
1.418000e-01 9.694129e-04
1.426500e-01 9.533316e-04
1.435000e-01 9.333405e-04
1.443500e-01 9.097671e-04
1.452000e-01 8.829494e-04
1.460500e-01 8.532340e-04
1.469000e-01 8.209712e-04
1.477500e-01 7.865125e-04
1.486000e-01 7.502064e-04
1.494500e-01 7.123966e-04
1.503000e-01 6.734181e-04
1.511500e-01 6.335952e-04
1.520000e-01 5.932389e-04
1.528500e-01 5.526454e-04
1.537000e-01 5.120930e-04
1.545500e-01 4.718420e-04
1.554000e-01 4.321327e-04
1.562500e-01 3.931844e-04
1.571000e-01 3.551952e-04
1.579500e-01 3.183415e-04
1.588000e-01 2.827773e-04
1.596500e-01 2.486353e-04
1.605000e-01 2.160261e-04
1.613500e-01 1.850402e-04
1.622000e-01 1.557473e-04
1.630500e-01 1.281978e-04
1.639000e-01 1.024238e-04
1.647500e-01 7.844086e-05
1.656000e-01 5.624793e-05
1.664500e-01 3.582972e-05
1.673000e-01 1.715765e-05
1.681500e-01 1.916274e-07
1.690000e-01 -1.511894e-05
1.698500e-01 -2.883355e-05
1.707000e-01 -4.101893e-05
1.715500e-01 -5.174822e-05
1.724000e-01 -6.109931e-05
1.732500e-01 -6.915360e-05
1.741000e-01 -7.599506e-05
1.749500e-01 -8.170879e-05
1.758000e-01 -8.638033e-05
1.766500e-01 -9.009493e-05
1.775000e-01 -9.293592e-05
1.783500e-01 -9.498503e-05
1.792000e-01 -9.632132e-05
1.800500e-01 -9.702107e-05
1.809000e-01 -9.715655e-05
1.817500e-01 -9.679658e-05
1.826000e-01 -9.600594e-05
1.834500e-01 -9.484527e-05
1.843000e-01 -9.337085e-05
1.851500e-01 -9.163483e-05
1.860000e-01 -8.968500e-05
1.868500e-01 -8.756507e-05
1.877000e-01 -8.531456e-05
1.885500e-01 -8.296945e-05
1.894000e-01 -8.056173e-05
1.902500e-01 -7.811990e-05
1.911000e-01 -7.566923e-05
1.919500e-01 -7.323177e-05
1.928000e-01 -7.082665e-05
1.936500e-01 -6.847030e-05
1.945000e-01 -6.617654e-05
1.953500e-01 -6.395688e-05
1.962000e-01 -6.182025e-05
1.970500e-01 -5.977396e-05
1.979000e-01 -5.782311e-05
1.987500e-01 -5.597105e-05
1.996000e-01 -5.421967e-05
2.004500e-01 -5.256920e-05
2.013000e-01 -5.101849e-05
2.021500e-01 -4.956518e-05
2.030000e-01 -4.820572e-05
2.038500e-01 -4.693532e-05
2.047000e-01 -4.574839e-05
2.055500e-01 -4.463840e-05
2.064000e-01 -4.359801e-05
2.072500e-01 -4.261922e-05
2.081000e-01 -4.169366e-05
2.089500e-01 -4.081259e-05
2.098000e-01 -3.996699e-05
2.106500e-01 -3.914794e-05
2.115000e-01 -3.834637e-05
2.123500e-01 -3.755372e-05
2.132000e-01 -3.676146e-05
2.140500e-01 -3.596153e-05
2.149000e-01 -3.514646e-05
2.157500e-01 -3.430937e-05
2.166000e-01 -3.344408e-05
2.174500e-01 -3.254538e-05
2.183000e-01 -3.160882e-05
2.191500e-01 -3.063118e-05
2.200000e-01 -2.961023e-05
2.208500e-01 -2.854495e-05
2.217000e-01 -2.743548e-05
2.225500e-01 -2.628312e-05
2.234000e-01 -2.509024e-05
2.242500e-01 -2.386028e-05
2.251000e-01 -2.259753e-05
2.259500e-01 -2.130722e-05
2.268000e-01 -1.999519e-05
2.276500e-01 -1.866796e-05
2.285000e-01 -1.733251e-05
2.293500e-01 -1.599624e-05
2.302000e-01 -1.466684e-05
2.310500e-01 -1.335211e-05
2.319000e-01 -1.206000e-05
2.327500e-01 -1.079837e-05
2.336000e-01 -9.574866e-06
2.344500e-01 -8.396976e-06
2.353000e-01 -7.271665e-06
2.361500e-01 -6.205465e-06
2.370000e-01 -5.204299e-06
2.378500e-01 -4.273415e-06
2.387000e-01 -3.417271e-06
2.395500e-01 -2.639500e-06
2.404000e-01 -1.942950e-06
2.412500e-01 -1.329692e-06
2.421000e-01 -8.007713e-07
2.429500e-01 -3.566978e-07
2.438000e-01 2.941283e-09
2.446500e-01 2.791384e-07
2.455000e-01 4.735241e-07
2.463500e-01 5.881992e-07
2.472000e-01 6.258322e-07
2.480500e-01 5.894502e-07
2.489000e-01 4.825422e-07
2.497500e-01 3.089334e-07
2.506000e-01 7.285000e-08
2.514500e-01 -2.211890e-07
2.523000e-01 -5.683545e-07
2.531500e-01 -9.635095e-07
2.540000e-01 -1.401442e-06
2.548500e-01 -1.876629e-06
2.557000e-01 -2.383565e-06
2.565500e-01 -2.916676e-06
2.574000e-01 -3.470484e-06
2.582500e-01 -4.039470e-06
2.591000e-01 -4.618323e-06
2.599500e-01 -5.201763e-06
2.608000e-01 -5.784672e-06
2.616500e-01 -6.362014e-06
2.625000e-01 -6.928819e-06
2.633500e-01 -7.480256e-06
2.642000e-01 -8.011620e-06
2.650500e-01 -8.518370e-06
2.659000e-01 -8.996127e-06
2.667500e-01 -9.440761e-06
2.676000e-01 -9.848412e-06
2.684500e-01 -1.021552e-05
2.693000e-01 -1.053891e-05
2.701500e-01 -1.081579e-05
2.710000e-01 -1.104383e-05
2.718500e-01 -1.122118e-05
2.727000e-01 -1.134644e-05
2.735500e-01 -1.141882e-05
2.744000e-01 -1.143805e-05
2.752500e-01 -1.140446e-05
2.761000e-01 -1.131898e-05
2.769500e-01 -1.118307e-05
2.778000e-01 -1.099875e-05
2.786500e-01 -1.076850e-05
2.795000e-01 -1.049524e-05
2.803500e-01 -1.018221e-05
2.812000e-01 -9.832969e-06
2.820500e-01 -9.451323e-06
2.829000e-01 -9.041278e-06
2.837500e-01 -8.606995e-06
2.846000e-01 -8.152772e-06
2.854500e-01 -7.683015e-06
2.863000e-01 -7.202148e-06
2.871500e-01 -6.714565e-06
2.880000e-01 -6.224548e-06
2.888500e-01 -5.736146e-06
2.897000e-01 -5.253079e-06
2.905500e-01 -4.778632e-06
2.914000e-01 -4.315576e-06
2.922500e-01 -3.866123e-06
2.931000e-01 -3.431893e-06
2.939500e-01 -3.013931e-06
2.948000e-01 -2.612752e-06
2.956500e-01 -2.228380e-06
2.965000e-01 -1.860427e-06
2.973500e-01 -1.508143e-06
2.982000e-01 -1.170469e-06
2.990500e-01 -8.460728e-07
2.999000e-01 -5.333874e-07
3.007500e-01 -2.306313e-07
3.016000e-01 6.415039e-08
3.024500e-01 3.530481e-07
3.033000e-01 6.382267e-07
3.041500e-01 9.218558e-07
3.050000e-01 1.206028e-06
3.058500e-01 1.492670e-06
3.067000e-01 1.783466e-06
3.075500e-01 2.079780e-06
3.084000e-01 2.382608e-06
3.092500e-01 2.692546e-06
3.101000e-01 3.009760e-06
3.109500e-01 3.333993e-06
3.118000e-01 3.664585e-06
3.126500e-01 4.000467e-06
3.135000e-01 4.340237e-06
3.143500e-01 4.682138e-06
3.152000e-01 5.024133e-06
3.160500e-01 5.363941e-06
3.169000e-01 5.699073e-06
3.177500e-01 6.026890e-06
3.186000e-01 6.344645e-06
3.194500e-01 6.649532e-06
3.203000e-01 6.938717e-06
3.211500e-01 7.209399e-06
3.220000e-01 7.458805e-06
3.228500e-01 7.684263e-06
3.237000e-01 7.883192e-06
3.245500e-01 8.053171e-06
3.254000e-01 8.191961e-06
3.262500e-01 8.297526e-06
3.271000e-01 8.368098e-06
3.279500e-01 8.402204e-06
3.288000e-01 8.398677e-06
3.296500e-01 8.356657e-06
3.305000e-01 8.275590e-06
3.313500e-01 8.155210e-06
3.322000e-01 7.995463e-06
3.330500e-01 7.796525e-06
3.339000e-01 7.558708e-06
3.347500e-01 7.282472e-06
3.356000e-01 6.968410e-06
3.364500e-01 6.617261e-06
3.373000e-01 6.229926e-06
3.381500e-01 5.807516e-06
3.390000e-01 5.351365e-06
3.398500e-01 4.863040e-06
3.407000e-01 4.344345e-06
3.415500e-01 3.797320e-06
3.424000e-01 3.224192e-06
3.432500e-01 2.627361e-06
3.441000e-01 2.009371e-06
3.449500e-01 1.372896e-06
3.458000e-01 7.207534e-07
3.466500e-01 5.590820e-08
3.475000e-01 -6.184838e-07
3.483500e-01 -1.299050e-06
3.492000e-01 -1.982178e-06
3.500500e-01 -2.664007e-06
3.509000e-01 -3.340439e-06
3.517500e-01 -4.007171e-06
3.526000e-01 -4.659748e-06
3.534500e-01 -5.293615e-06
3.543000e-01 -5.904173e-06
3.551500e-01 -6.486839e-06
3.560000e-01 -7.037082e-06
3.568500e-01 -7.550470e-06
3.577000e-01 -8.022706e-06
3.585500e-01 -8.449651e-06
3.594000e-01 -8.827390e-06
3.602500e-01 -9.152282e-06
3.611000e-01 -9.421041e-06
3.619500e-01 -9.630780e-06
3.628000e-01 -9.779120e-06
3.636500e-01 -9.864234e-06
3.645000e-01 -9.884900e-06
3.653500e-01 -9.840502e-06
3.662000e-01 -9.731041e-06
3.670500e-01 -9.557119e-06
3.679000e-01 -9.319908e-06
3.687500e-01 -9.021101e-06
3.696000e-01 -8.662925e-06
3.704500e-01 -8.248099e-06
3.713000e-01 -7.779837e-06
3.721500e-01 -7.261858e-06
3.730000e-01 -6.698363e-06
3.738500e-01 -6.094020e-06
3.747000e-01 -5.453925e-06
3.755500e-01 -4.783517e-06
3.764000e-01 -4.088503e-06
3.772500e-01 -3.374755e-06
3.781000e-01 -2.648200e-06
3.789500e-01 -1.914719e-06
3.798000e-01 -1.180078e-06
3.806500e-01 -4.498547e-07
3.815000e-01 2.705970e-07
3.823500e-01 9.761682e-07
3.832000e-01 1.662015e-06
3.840500e-01 2.323571e-06
3.849000e-01 2.956568e-06
3.857500e-01 3.557064e-06
3.866000e-01 4.121472e-06
3.874500e-01 4.646605e-06
3.883000e-01 5.129697e-06
3.891500e-01 5.568424e-06
